<?xml version="1.0" encoding="UTF-8"?>

<!-- generated on 2025-08-18 17:06:21 by Eclipse SUMO GUI Version 1.16.0
<configuration xmlns:xsi="http://www.w3.org/2001/XMLSchema-instance" xsi:noNamespaceSchemaLocation="http://sumo.dlr.de/xsd/sumoConfiguration.xsd">

    <input>
        <net-file value="E:\txw\sumo-rl\nets\syc\1x1\Eq_350_BC_Wstr_Estr-Wleft_Eleft\Eq_350_40-60-20-80-Bus-Car\syc_4phases.net.xml"/>
        <route-files value="E:\txw\sumo-rl\nets\syc\1x1\Eq_350_BC_Wstr_Estr-Wleft_Eleft\Eq_350_40-60-20-80-Bus-Car\Eq_350_40-60-20-80-Bus-Car.rou.xml"/>
        <additional-files value="E:\txw\sumo-rl\nets\syc\1x1\Eq_350_BC_Wstr_Estr-Wleft_Eleft\Eq_350_40-60-20-80-Bus-Car\1x1_outputs.add.xml"/>
    </input>

    <output>
        <fcd-output value="E:\txw\sumo-rl\nets\syc\1x1\Eq_350_BC_Wstr_Estr-Wleft_Eleft\Eq_350_40-60-20-80-Bus-Car\output/fcd_output.xml"/>
        <tripinfo-output value="E:\txw\sumo-rl\nets\syc\1x1\Eq_350_BC_Wstr_Estr-Wleft_Eleft\Eq_350_40-60-20-80-Bus-Car\output/tripinfo.out.xml"/>
    </output>

    <time>
        <begin value="0"/>
        <end value="1000"/>
    </time>

</configuration>
-->

<meandata xmlns:xsi="http://www.w3.org/2001/XMLSchema-instance" xsi:noNamespaceSchemaLocation="http://sumo.dlr.de/xsd/meandata_file.xsd">
    <interval begin="0.00" end="10.00" id="1">
        <edge id="e_t" sampledSeconds="43.00" traveltime="14.75" overlapTraveltime="15.14" density="23.07" laneDensity="7.69" occupancy="3.84" waitingTime="0.00" timeLoss="2.42" speed="12.64" speedRelative="0.91" departed="5" arrived="0" entered="0" left="0" laneChangedFrom="0" laneChangedTo="0"/>
        <edge id="n_t" sampledSeconds="27.00" traveltime="13.44" overlapTraveltime="13.80" density="14.48" laneDensity="4.83" occupancy="2.41" waitingTime="0.00" timeLoss="1.16" speed="13.87" speedRelative="1.00" departed="3" arrived="0" entered="0" left="0" laneChangedFrom="0" laneChangedTo="0"/>
        <edge id="s_t" sampledSeconds="27.00" traveltime="13.63" overlapTraveltime="13.99" density="14.48" laneDensity="4.83" occupancy="2.41" waitingTime="0.00" timeLoss="1.09" speed="13.68" speedRelative="0.98" departed="3" arrived="0" entered="0" left="0" laneChangedFrom="0" laneChangedTo="0"/>
        <edge id="t_e" sampledSeconds="0.00" departed="0" arrived="0" entered="0" left="0" laneChangedFrom="0" laneChangedTo="0"/>
        <edge id="t_n" sampledSeconds="0.00" departed="0" arrived="0" entered="0" left="0" laneChangedFrom="0" laneChangedTo="0"/>
        <edge id="t_s" sampledSeconds="0.00" departed="0" arrived="0" entered="0" left="0" laneChangedFrom="0" laneChangedTo="0"/>
        <edge id="t_w" sampledSeconds="0.00" departed="0" arrived="0" entered="0" left="0" laneChangedFrom="0" laneChangedTo="0"/>
        <edge id="w_t" sampledSeconds="43.00" traveltime="14.91" overlapTraveltime="15.31" density="23.07" laneDensity="7.69" occupancy="3.84" waitingTime="0.00" timeLoss="3.25" speed="12.50" speedRelative="0.90" departed="5" arrived="0" entered="0" left="0" laneChangedFrom="0" laneChangedTo="0"/>
    </interval>
    <interval begin="10.00" end="20.00" id="1">
        <edge id="e_t" sampledSeconds="53.59" traveltime="18.59" overlapTraveltime="19.16" density="28.75" laneDensity="9.58" occupancy="4.72" waitingTime="2.00" timeLoss="10.92" speed="9.99" speedRelative="0.72" departed="3" arrived="0" entered="0" left="3" laneChangedFrom="0" laneChangedTo="0"/>
        <edge id="n_t" sampledSeconds="49.92" traveltime="19.11" overlapTraveltime="19.73" density="26.78" laneDensity="8.93" occupancy="4.43" waitingTime="6.00" timeLoss="14.46" speed="9.70" speedRelative="0.70" departed="3" arrived="0" entered="0" left="1" laneChangedFrom="0" laneChangedTo="0"/>
        <edge id="s_t" sampledSeconds="51.08" traveltime="18.86" overlapTraveltime="19.53" density="27.40" laneDensity="9.13" occupancy="4.53" waitingTime="9.00" timeLoss="15.01" speed="9.80" speedRelative="0.71" departed="3" arrived="0" entered="0" left="1" laneChangedFrom="0" laneChangedTo="0"/>
        <edge id="t_e" sampledSeconds="7.20" traveltime="15.50" overlapTraveltime="15.92" density="3.86" laneDensity="1.29" occupancy="0.58" waitingTime="0.00" timeLoss="1.01" speed="12.03" speedRelative="0.87" departed="0" arrived="0" entered="3" left="0" laneChangedFrom="0" laneChangedTo="0"/>
        <edge id="t_n" sampledSeconds="2.23" traveltime="20.79" overlapTraveltime="21.34" density="1.19" laneDensity="0.40" occupancy="0.17" waitingTime="0.00" timeLoss="0.69" speed="8.97" speedRelative="0.65" departed="0" arrived="0" entered="1" left="0" laneChangedFrom="0" laneChangedTo="0"/>
        <edge id="t_s" sampledSeconds="0.93" traveltime="36.34" overlapTraveltime="37.31" density="0.50" laneDensity="0.17" occupancy="0.04" waitingTime="0.00" timeLoss="0.53" speed="5.13" speedRelative="0.37" departed="0" arrived="0" entered="1" left="0" laneChangedFrom="0" laneChangedTo="0"/>
        <edge id="t_w" sampledSeconds="8.48" traveltime="16.08" overlapTraveltime="16.51" density="4.55" laneDensity="1.52" occupancy="0.69" waitingTime="0.00" timeLoss="1.58" speed="11.59" speedRelative="0.83" departed="0" arrived="0" entered="3" left="0" laneChangedFrom="0" laneChangedTo="0"/>
        <edge id="w_t" sampledSeconds="54.97" traveltime="18.45" overlapTraveltime="19.01" density="29.49" laneDensity="9.83" occupancy="4.84" waitingTime="4.00" timeLoss="12.17" speed="10.07" speedRelative="0.72" departed="3" arrived="0" entered="0" left="3" laneChangedFrom="0" laneChangedTo="0"/>
    </interval>
    <interval begin="20.00" end="30.00" id="1">
        <edge id="e_t" sampledSeconds="63.17" traveltime="22.41" overlapTraveltime="23.15" density="33.89" laneDensity="11.30" occupancy="5.60" waitingTime="18.00" timeLoss="22.99" speed="8.27" speedRelative="0.60" departed="3" arrived="0" entered="0" left="1" laneChangedFrom="0" laneChangedTo="0"/>
        <edge id="n_t" sampledSeconds="71.51" traveltime="23.84" overlapTraveltime="24.57" density="38.37" laneDensity="12.79" occupancy="6.35" waitingTime="25.00" timeLoss="31.62" speed="7.79" speedRelative="0.56" departed="3" arrived="0" entered="0" left="1" laneChangedFrom="0" laneChangedTo="0"/>
        <edge id="s_t" sampledSeconds="73.06" traveltime="24.03" overlapTraveltime="24.77" density="39.20" laneDensity="13.07" occupancy="6.49" waitingTime="26.00" timeLoss="34.32" speed="7.73" speedRelative="0.56" departed="3" arrived="0" entered="0" left="1" laneChangedFrom="0" laneChangedTo="0"/>
        <edge id="t_e" sampledSeconds="30.14" traveltime="14.41" overlapTraveltime="14.80" density="16.17" laneDensity="5.39" occupancy="2.68" waitingTime="0.00" timeLoss="2.23" speed="12.94" speedRelative="0.93" departed="0" arrived="0" entered="1" left="0" laneChangedFrom="0" laneChangedTo="0"/>
        <edge id="t_n" sampledSeconds="10.00" traveltime="15.03" overlapTraveltime="15.43" density="5.36" laneDensity="1.79" occupancy="0.89" waitingTime="0.00" timeLoss="0.48" speed="12.40" speedRelative="0.89" departed="0" arrived="0" entered="0" left="0" laneChangedFrom="0" laneChangedTo="0"/>
        <edge id="t_s" sampledSeconds="11.06" traveltime="18.13" overlapTraveltime="18.62" density="5.93" laneDensity="1.98" occupancy="0.96" waitingTime="0.00" timeLoss="1.56" speed="10.28" speedRelative="0.74" departed="0" arrived="0" entered="1" left="0" laneChangedFrom="0" laneChangedTo="0"/>
        <edge id="t_w" sampledSeconds="31.17" traveltime="14.60" overlapTraveltime="14.98" density="16.72" laneDensity="5.57" occupancy="2.74" waitingTime="0.00" timeLoss="2.34" speed="12.78" speedRelative="0.92" departed="0" arrived="1" entered="1" left="0" laneChangedFrom="0" laneChangedTo="0"/>
        <edge id="w_t" sampledSeconds="62.12" traveltime="23.56" overlapTraveltime="24.31" density="33.32" laneDensity="11.11" occupancy="5.51" waitingTime="20.00" timeLoss="24.28" speed="7.87" speedRelative="0.57" departed="3" arrived="0" entered="0" left="1" laneChangedFrom="0" laneChangedTo="0"/>
    </interval>
    <interval begin="30.00" end="40.00" id="1">
        <edge id="e_t" sampledSeconds="71.23" traveltime="25.23" overlapTraveltime="26.13" density="38.21" laneDensity="12.74" occupancy="6.28" waitingTime="25.00" timeLoss="33.52" speed="7.32" speedRelative="0.53" departed="3" arrived="0" entered="0" left="3" laneChangedFrom="0" laneChangedTo="0"/>
        <edge id="n_t" sampledSeconds="93.67" traveltime="34.03" overlapTraveltime="35.09" density="50.25" laneDensity="16.75" occupancy="8.32" waitingTime="47.00" timeLoss="57.83" speed="5.46" speedRelative="0.39" departed="3" arrived="0" entered="0" left="1" laneChangedFrom="0" laneChangedTo="0"/>
        <edge id="s_t" sampledSeconds="93.78" traveltime="36.28" overlapTraveltime="37.40" density="50.31" laneDensity="16.77" occupancy="8.33" waitingTime="48.00" timeLoss="59.88" speed="5.12" speedRelative="0.37" departed="3" arrived="0" entered="0" left="1" laneChangedFrom="0" laneChangedTo="0"/>
        <edge id="t_e" sampledSeconds="21.96" traveltime="15.80" overlapTraveltime="16.13" density="11.78" laneDensity="3.93" occupancy="1.87" waitingTime="0.00" timeLoss="1.91" speed="11.86" speedRelative="0.85" departed="0" arrived="3" entered="1" left="0" laneChangedFrom="0" laneChangedTo="0"/>
        <edge id="t_n" sampledSeconds="18.34" traveltime="17.18" overlapTraveltime="17.58" density="9.84" laneDensity="3.28" occupancy="1.55" waitingTime="0.00" timeLoss="3.13" speed="10.89" speedRelative="0.78" departed="0" arrived="1" entered="2" left="0" laneChangedFrom="0" laneChangedTo="0"/>
        <edge id="t_s" sampledSeconds="17.00" traveltime="16.14" overlapTraveltime="16.58" density="9.12" laneDensity="3.04" occupancy="1.52" waitingTime="0.00" timeLoss="1.41" speed="11.54" speedRelative="0.83" departed="0" arrived="1" entered="0" left="0" laneChangedFrom="0" laneChangedTo="0"/>
        <edge id="t_w" sampledSeconds="21.01" traveltime="15.05" overlapTraveltime="15.43" density="11.27" laneDensity="3.76" occupancy="1.82" waitingTime="0.00" timeLoss="1.43" speed="12.41" speedRelative="0.89" departed="0" arrived="2" entered="1" left="0" laneChangedFrom="0" laneChangedTo="0"/>
        <edge id="w_t" sampledSeconds="75.43" traveltime="25.73" overlapTraveltime="26.74" density="40.47" laneDensity="13.49" occupancy="6.63" waitingTime="27.00" timeLoss="34.80" speed="7.16" speedRelative="0.52" departed="3" arrived="0" entered="0" left="3" laneChangedFrom="0" laneChangedTo="0"/>
    </interval>
    <interval begin="40.00" end="50.00" id="1">
        <edge id="e_t" sampledSeconds="60.15" traveltime="23.27" overlapTraveltime="24.23" density="32.27" laneDensity="10.76" occupancy="5.21" waitingTime="8.00" timeLoss="22.38" speed="7.90" speedRelative="0.57" departed="1" arrived="0" entered="0" left="4" laneChangedFrom="0" laneChangedTo="0"/>
        <edge id="n_t" sampledSeconds="108.03" traveltime="45.86" overlapTraveltime="46.95" density="57.95" laneDensity="19.32" occupancy="9.62" waitingTime="69.00" timeLoss="75.77" speed="4.08" speedRelative="0.29" departed="3" arrived="0" entered="0" left="1" laneChangedFrom="0" laneChangedTo="0"/>
        <edge id="s_t" sampledSeconds="110.01" traveltime="43.07" overlapTraveltime="44.17" density="59.02" laneDensity="19.67" occupancy="9.79" waitingTime="69.00" timeLoss="75.12" speed="4.33" speedRelative="0.31" departed="3" arrived="0" entered="0" left="1" laneChangedFrom="0" laneChangedTo="0"/>
        <edge id="t_e" sampledSeconds="26.82" traveltime="15.49" overlapTraveltime="15.93" density="14.39" laneDensity="4.80" occupancy="2.33" waitingTime="0.00" timeLoss="2.56" speed="12.02" speedRelative="0.87" departed="0" arrived="1" entered="2" left="0" laneChangedFrom="0" laneChangedTo="0"/>
        <edge id="t_n" sampledSeconds="34.34" traveltime="14.82" overlapTraveltime="15.22" density="18.42" laneDensity="6.14" occupancy="2.93" waitingTime="0.00" timeLoss="3.12" speed="12.58" speedRelative="0.91" departed="0" arrived="2" entered="4" left="0" laneChangedFrom="0" laneChangedTo="0"/>
        <edge id="t_s" sampledSeconds="30.32" traveltime="16.67" overlapTraveltime="17.11" density="16.26" laneDensity="5.42" occupancy="2.55" waitingTime="0.00" timeLoss="4.19" speed="11.19" speedRelative="0.81" departed="0" arrived="1" entered="5" left="0" laneChangedFrom="0" laneChangedTo="0"/>
        <edge id="t_w" sampledSeconds="25.92" traveltime="15.80" overlapTraveltime="16.22" density="13.90" laneDensity="4.63" occupancy="2.25" waitingTime="0.00" timeLoss="2.97" speed="11.80" speedRelative="0.85" departed="0" arrived="1" entered="2" left="0" laneChangedFrom="0" laneChangedTo="0"/>
        <edge id="w_t" sampledSeconds="60.83" traveltime="21.31" overlapTraveltime="22.21" density="32.63" laneDensity="10.88" occupancy="5.29" waitingTime="9.00" timeLoss="21.93" speed="8.62" speedRelative="0.62" departed="1" arrived="0" entered="0" left="4" laneChangedFrom="0" laneChangedTo="0"/>
    </interval>
    <interval begin="50.00" end="60.00" id="1">
        <edge id="e_t" sampledSeconds="69.11" traveltime="21.06" overlapTraveltime="21.79" density="37.08" laneDensity="12.36" occupancy="6.11" waitingTime="16.00" timeLoss="24.20" speed="8.78" speedRelative="0.63" departed="5" arrived="0" entered="0" left="2" laneChangedFrom="0" laneChangedTo="0"/>
        <edge id="n_t" sampledSeconds="128.85" traveltime="49.36" overlapTraveltime="50.48" density="69.13" laneDensity="23.04" occupancy="11.49" waitingTime="84.00" timeLoss="92.32" speed="3.79" speedRelative="0.27" departed="3" arrived="0" entered="0" left="1" laneChangedFrom="0" laneChangedTo="0"/>
        <edge id="s_t" sampledSeconds="129.13" traveltime="51.25" overlapTraveltime="52.42" density="69.28" laneDensity="23.09" occupancy="11.51" waitingTime="87.00" timeLoss="94.93" speed="3.65" speedRelative="0.26" departed="3" arrived="0" entered="0" left="1" laneChangedFrom="0" laneChangedTo="0"/>
        <edge id="t_e" sampledSeconds="17.86" traveltime="16.21" overlapTraveltime="16.56" density="9.58" laneDensity="3.19" occupancy="1.53" waitingTime="0.00" timeLoss="2.16" speed="11.56" speedRelative="0.83" departed="0" arrived="2" entered="1" left="0" laneChangedFrom="0" laneChangedTo="0"/>
        <edge id="t_n" sampledSeconds="51.53" traveltime="15.10" overlapTraveltime="15.49" density="27.64" laneDensity="9.21" occupancy="4.51" waitingTime="0.00" timeLoss="3.67" speed="12.35" speedRelative="0.89" departed="0" arrived="1" entered="3" left="0" laneChangedFrom="0" laneChangedTo="0"/>
        <edge id="t_s" sampledSeconds="56.46" traveltime="16.02" overlapTraveltime="16.44" density="30.29" laneDensity="10.10" occupancy="4.99" waitingTime="0.00" timeLoss="6.09" speed="11.64" speedRelative="0.84" departed="0" arrived="2" entered="2" left="0" laneChangedFrom="0" laneChangedTo="0"/>
        <edge id="t_w" sampledSeconds="19.25" traveltime="14.75" overlapTraveltime="15.14" density="10.33" laneDensity="3.44" occupancy="1.65" waitingTime="0.00" timeLoss="1.53" speed="12.64" speedRelative="0.91" departed="0" arrived="2" entered="1" left="0" laneChangedFrom="0" laneChangedTo="0"/>
        <edge id="w_t" sampledSeconds="63.69" traveltime="21.98" overlapTraveltime="22.70" density="34.17" laneDensity="11.39" occupancy="5.62" waitingTime="16.00" timeLoss="24.34" speed="8.43" speedRelative="0.61" departed="5" arrived="0" entered="0" left="2" laneChangedFrom="0" laneChangedTo="0"/>
    </interval>
    <interval begin="60.00" end="70.00" id="1">
        <edge id="e_t" sampledSeconds="77.27" traveltime="24.14" overlapTraveltime="24.82" density="41.45" laneDensity="13.82" occupancy="6.85" waitingTime="22.00" timeLoss="34.08" speed="7.71" speedRelative="0.56" departed="3" arrived="0" entered="0" left="2" laneChangedFrom="0" laneChangedTo="0"/>
        <edge id="n_t" sampledSeconds="149.89" traveltime="58.22" overlapTraveltime="59.49" density="80.41" laneDensity="26.80" occupancy="13.36" waitingTime="106.00" timeLoss="114.60" speed="3.22" speedRelative="0.23" departed="3" arrived="0" entered="0" left="1" laneChangedFrom="0" laneChangedTo="0"/>
        <edge id="s_t" sampledSeconds="149.55" traveltime="58.77" overlapTraveltime="60.06" density="80.23" laneDensity="26.74" occupancy="13.33" waitingTime="108.00" timeLoss="114.78" speed="3.19" speedRelative="0.23" departed="3" arrived="0" entered="0" left="1" laneChangedFrom="0" laneChangedTo="0"/>
        <edge id="t_e" sampledSeconds="17.41" traveltime="15.76" overlapTraveltime="16.18" density="9.34" laneDensity="3.11" occupancy="1.50" waitingTime="0.00" timeLoss="1.67" speed="11.83" speedRelative="0.85" departed="0" arrived="1" entered="1" left="0" laneChangedFrom="0" laneChangedTo="0"/>
        <edge id="t_n" sampledSeconds="35.37" traveltime="14.36" overlapTraveltime="14.76" density="18.98" laneDensity="6.33" occupancy="3.08" waitingTime="0.00" timeLoss="2.74" speed="12.97" speedRelative="0.93" departed="0" arrived="5" entered="1" left="0" laneChangedFrom="0" laneChangedTo="0"/>
        <edge id="t_s" sampledSeconds="40.56" traveltime="15.64" overlapTraveltime="16.03" density="21.76" laneDensity="7.25" occupancy="3.51" waitingTime="0.00" timeLoss="4.38" speed="11.94" speedRelative="0.86" departed="0" arrived="4" entered="2" left="0" laneChangedFrom="0" laneChangedTo="0"/>
        <edge id="t_w" sampledSeconds="13.43" traveltime="14.70" overlapTraveltime="15.08" density="7.21" laneDensity="2.40" occupancy="1.15" waitingTime="0.00" timeLoss="1.36" speed="12.69" speedRelative="0.91" departed="0" arrived="1" entered="1" left="0" laneChangedFrom="0" laneChangedTo="0"/>
        <edge id="w_t" sampledSeconds="78.72" traveltime="24.28" overlapTraveltime="25.03" density="42.23" laneDensity="14.08" occupancy="6.97" waitingTime="21.00" timeLoss="32.76" speed="7.65" speedRelative="0.55" departed="3" arrived="0" entered="0" left="2" laneChangedFrom="0" laneChangedTo="0"/>
    </interval>
    <interval begin="70.00" end="80.00" id="1">
        <edge id="e_t" sampledSeconds="85.98" traveltime="35.80" overlapTraveltime="36.71" density="46.13" laneDensity="15.38" occupancy="7.65" waitingTime="49.00" timeLoss="54.61" speed="5.21" speedRelative="0.38" departed="3" arrived="0" entered="0" left="1" laneChangedFrom="0" laneChangedTo="0"/>
        <edge id="n_t" sampledSeconds="164.18" traveltime="72.19" overlapTraveltime="73.26" density="88.08" laneDensity="29.36" occupancy="14.59" waitingTime="120.00" timeLoss="132.71" speed="2.61" speedRelative="0.19" departed="3" arrived="0" entered="0" left="3" laneChangedFrom="0" laneChangedTo="0"/>
        <edge id="s_t" sampledSeconds="165.00" traveltime="73.29" overlapTraveltime="74.46" density="88.52" laneDensity="29.51" occupancy="14.65" waitingTime="119.00" timeLoss="133.36" speed="2.57" speedRelative="0.19" departed="3" arrived="0" entered="0" left="3" laneChangedFrom="0" laneChangedTo="0"/>
        <edge id="t_e" sampledSeconds="15.02" traveltime="15.50" overlapTraveltime="15.88" density="8.06" laneDensity="2.69" occupancy="1.31" waitingTime="0.00" timeLoss="1.72" speed="12.05" speedRelative="0.87" departed="0" arrived="1" entered="1" left="0" laneChangedFrom="0" laneChangedTo="0"/>
        <edge id="t_n" sampledSeconds="22.99" traveltime="14.80" overlapTraveltime="15.18" density="12.33" laneDensity="4.11" occupancy="1.98" waitingTime="0.00" timeLoss="1.91" speed="12.61" speedRelative="0.91" departed="0" arrived="1" entered="2" left="0" laneChangedFrom="0" laneChangedTo="0"/>
        <edge id="t_s" sampledSeconds="29.28" traveltime="15.40" overlapTraveltime="15.78" density="15.71" laneDensity="5.24" occupancy="2.52" waitingTime="0.00" timeLoss="2.48" speed="12.13" speedRelative="0.87" departed="0" arrived="2" entered="2" left="0" laneChangedFrom="0" laneChangedTo="0"/>
        <edge id="t_w" sampledSeconds="15.08" traveltime="15.40" overlapTraveltime="15.77" density="8.09" laneDensity="2.70" occupancy="1.29" waitingTime="0.00" timeLoss="1.60" speed="12.14" speedRelative="0.87" departed="0" arrived="1" entered="1" left="0" laneChangedFrom="0" laneChangedTo="0"/>
        <edge id="w_t" sampledSeconds="86.43" traveltime="34.36" overlapTraveltime="35.25" density="46.37" laneDensity="15.46" occupancy="7.69" waitingTime="47.00" timeLoss="52.06" speed="5.43" speedRelative="0.39" departed="3" arrived="0" entered="0" left="1" laneChangedFrom="0" laneChangedTo="0"/>
    </interval>
    <interval begin="80.00" end="90.00" id="1">
        <edge id="e_t" sampledSeconds="107.96" traveltime="38.74" overlapTraveltime="39.68" density="57.92" laneDensity="19.31" occupancy="9.62" waitingTime="66.00" timeLoss="71.78" speed="4.82" speedRelative="0.35" departed="2" arrived="0" entered="0" left="1" laneChangedFrom="0" laneChangedTo="0"/>
        <edge id="n_t" sampledSeconds="150.18" traveltime="45.47" overlapTraveltime="45.58" density="80.57" laneDensity="26.86" occupancy="13.27" waitingTime="75.00" timeLoss="103.88" speed="4.20" speedRelative="0.30" departed="3" arrived="0" entered="0" left="5" laneChangedFrom="0" laneChangedTo="0"/>
        <edge id="s_t" sampledSeconds="150.57" traveltime="43.64" overlapTraveltime="43.87" density="80.78" laneDensity="26.93" occupancy="13.30" waitingTime="76.00" timeLoss="102.92" speed="4.36" speedRelative="0.31" departed="3" arrived="0" entered="0" left="5" laneChangedFrom="0" laneChangedTo="0"/>
        <edge id="t_e" sampledSeconds="16.54" traveltime="15.96" overlapTraveltime="16.39" density="8.87" laneDensity="2.96" occupancy="1.42" waitingTime="0.00" timeLoss="2.32" speed="11.68" speedRelative="0.84" departed="0" arrived="1" entered="1" left="0" laneChangedFrom="0" laneChangedTo="0"/>
        <edge id="t_n" sampledSeconds="46.89" traveltime="14.00" overlapTraveltime="14.38" density="25.16" laneDensity="8.39" occupancy="4.05" waitingTime="0.00" timeLoss="3.65" speed="13.31" speedRelative="0.96" departed="0" arrived="2" entered="6" left="0" laneChangedFrom="0" laneChangedTo="0"/>
        <edge id="t_s" sampledSeconds="46.72" traveltime="14.59" overlapTraveltime="14.98" density="25.07" laneDensity="8.36" occupancy="4.03" waitingTime="0.00" timeLoss="4.54" speed="12.78" speedRelative="0.92" departed="0" arrived="2" entered="6" left="0" laneChangedFrom="0" laneChangedTo="0"/>
        <edge id="t_w" sampledSeconds="16.94" traveltime="15.19" overlapTraveltime="15.60" density="9.09" laneDensity="3.03" occupancy="1.46" waitingTime="0.00" timeLoss="1.96" speed="12.27" speedRelative="0.88" departed="0" arrived="1" entered="1" left="0" laneChangedFrom="0" laneChangedTo="0"/>
        <edge id="w_t" sampledSeconds="108.02" traveltime="40.54" overlapTraveltime="41.52" density="57.95" laneDensity="19.32" occupancy="9.62" waitingTime="65.00" timeLoss="71.53" speed="4.61" speedRelative="0.33" departed="2" arrived="0" entered="0" left="1" laneChangedFrom="0" laneChangedTo="0"/>
    </interval>
    <interval begin="90.00" end="100.00" id="1">
        <edge id="e_t" sampledSeconds="123.22" traveltime="57.14" overlapTraveltime="58.34" density="66.11" laneDensity="22.04" occupancy="10.98" waitingTime="85.00" timeLoss="94.51" speed="3.28" speedRelative="0.24" departed="2" arrived="0" entered="0" left="1" laneChangedFrom="0" laneChangedTo="0"/>
        <edge id="n_t" sampledSeconds="129.04" traveltime="43.27" overlapTraveltime="43.54" density="69.23" laneDensity="23.08" occupancy="11.45" waitingTime="84.00" timeLoss="88.70" speed="4.40" speedRelative="0.32" departed="3" arrived="0" entered="0" left="4" laneChangedFrom="0" laneChangedTo="0"/>
        <edge id="s_t" sampledSeconds="128.50" traveltime="46.99" overlapTraveltime="47.12" density="68.94" laneDensity="22.98" occupancy="11.40" waitingTime="85.00" timeLoss="90.31" speed="4.06" speedRelative="0.29" departed="3" arrived="0" entered="0" left="4" laneChangedFrom="0" laneChangedTo="0"/>
        <edge id="t_e" sampledSeconds="16.32" traveltime="14.13" overlapTraveltime="14.54" density="8.75" laneDensity="2.92" occupancy="1.41" waitingTime="0.00" timeLoss="1.21" speed="13.16" speedRelative="0.95" departed="0" arrived="1" entered="1" left="0" laneChangedFrom="0" laneChangedTo="0"/>
        <edge id="t_n" sampledSeconds="76.42" traveltime="14.17" overlapTraveltime="14.54" density="41.00" laneDensity="13.67" occupancy="6.69" waitingTime="0.00" timeLoss="6.39" speed="13.16" speedRelative="0.95" departed="0" arrived="4" entered="4" left="0" laneChangedFrom="0" laneChangedTo="0"/>
        <edge id="t_s" sampledSeconds="79.81" traveltime="14.39" overlapTraveltime="14.76" density="42.81" laneDensity="14.27" occupancy="7.02" waitingTime="0.00" timeLoss="7.82" speed="12.97" speedRelative="0.93" departed="0" arrived="4" entered="3" left="0" laneChangedFrom="0" laneChangedTo="0"/>
        <edge id="t_w" sampledSeconds="14.24" traveltime="13.69" overlapTraveltime="14.05" density="7.64" laneDensity="2.55" occupancy="1.23" waitingTime="0.00" timeLoss="1.17" speed="13.62" speedRelative="0.98" departed="0" arrived="1" entered="1" left="0" laneChangedFrom="0" laneChangedTo="0"/>
        <edge id="w_t" sampledSeconds="125.00" traveltime="56.96" overlapTraveltime="58.23" density="67.06" laneDensity="22.35" occupancy="11.15" waitingTime="85.00" timeLoss="93.19" speed="3.29" speedRelative="0.24" departed="2" arrived="0" entered="0" left="1" laneChangedFrom="0" laneChangedTo="0"/>
    </interval>
    <interval begin="100.00" end="110.00" id="1">
        <edge id="e_t" sampledSeconds="145.88" traveltime="53.33" overlapTraveltime="54.52" density="78.26" laneDensity="26.09" occupancy="13.01" waitingTime="105.00" timeLoss="110.63" speed="3.51" speedRelative="0.25" departed="5" arrived="0" entered="0" left="1" laneChangedFrom="0" laneChangedTo="0"/>
        <edge id="n_t" sampledSeconds="133.90" traveltime="52.32" overlapTraveltime="53.09" density="71.83" laneDensity="23.94" occupancy="11.92" waitingTime="95.00" timeLoss="100.71" speed="3.61" speedRelative="0.26" departed="3" arrived="0" entered="0" left="2" laneChangedFrom="0" laneChangedTo="0"/>
        <edge id="s_t" sampledSeconds="135.16" traveltime="50.98" overlapTraveltime="51.73" density="72.51" laneDensity="24.17" occupancy="12.03" waitingTime="96.00" timeLoss="99.18" speed="3.70" speedRelative="0.27" departed="3" arrived="0" entered="0" left="2" laneChangedFrom="0" laneChangedTo="0"/>
        <edge id="t_e" sampledSeconds="14.40" traveltime="15.79" overlapTraveltime="16.15" density="7.73" laneDensity="2.58" occupancy="1.23" waitingTime="0.00" timeLoss="2.61" speed="11.85" speedRelative="0.85" departed="0" arrived="1" entered="1" left="0" laneChangedFrom="0" laneChangedTo="0"/>
        <edge id="t_n" sampledSeconds="52.05" traveltime="14.65" overlapTraveltime="15.01" density="27.92" laneDensity="9.31" occupancy="4.56" waitingTime="0.00" timeLoss="3.91" speed="12.75" speedRelative="0.92" departed="0" arrived="5" entered="2" left="0" laneChangedFrom="0" laneChangedTo="0"/>
        <edge id="t_s" sampledSeconds="51.19" traveltime="14.63" overlapTraveltime="14.98" density="27.46" laneDensity="9.15" occupancy="4.42" waitingTime="0.00" timeLoss="4.17" speed="12.78" speedRelative="0.92" departed="0" arrived="6" entered="4" left="0" laneChangedFrom="0" laneChangedTo="0"/>
        <edge id="t_w" sampledSeconds="13.13" traveltime="14.63" overlapTraveltime="14.99" density="7.04" laneDensity="2.35" occupancy="1.13" waitingTime="0.00" timeLoss="1.43" speed="12.77" speedRelative="0.92" departed="0" arrived="1" entered="1" left="0" laneChangedFrom="0" laneChangedTo="0"/>
        <edge id="w_t" sampledSeconds="147.13" traveltime="52.66" overlapTraveltime="53.85" density="78.93" laneDensity="26.31" occupancy="13.11" waitingTime="103.00" timeLoss="108.13" speed="3.55" speedRelative="0.26" departed="5" arrived="0" entered="0" left="1" laneChangedFrom="0" laneChangedTo="0"/>
    </interval>
    <interval begin="110.00" end="120.00" id="1">
        <edge id="e_t" sampledSeconds="165.33" traveltime="66.81" overlapTraveltime="68.16" density="88.70" laneDensity="29.57" occupancy="14.75" waitingTime="116.00" timeLoss="133.20" speed="2.81" speedRelative="0.20" departed="2" arrived="0" entered="0" left="1" laneChangedFrom="0" laneChangedTo="0"/>
        <edge id="n_t" sampledSeconds="136.09" traveltime="55.98" overlapTraveltime="56.86" density="73.01" laneDensity="24.34" occupancy="12.04" waitingTime="83.00" timeLoss="103.99" speed="3.37" speedRelative="0.24" departed="3" arrived="0" entered="0" left="3" laneChangedFrom="0" laneChangedTo="0"/>
        <edge id="s_t" sampledSeconds="138.49" traveltime="54.78" overlapTraveltime="55.67" density="74.30" laneDensity="24.77" occupancy="12.26" waitingTime="86.00" timeLoss="105.43" speed="3.44" speedRelative="0.25" departed="3" arrived="0" entered="0" left="3" laneChangedFrom="0" laneChangedTo="0"/>
        <edge id="t_e" sampledSeconds="16.83" traveltime="13.97" overlapTraveltime="14.32" density="9.03" laneDensity="3.01" occupancy="1.44" waitingTime="0.00" timeLoss="1.51" speed="13.37" speedRelative="0.96" departed="0" arrived="1" entered="2" left="0" laneChangedFrom="0" laneChangedTo="0"/>
        <edge id="t_n" sampledSeconds="30.89" traveltime="14.41" overlapTraveltime="14.81" density="16.57" laneDensity="5.52" occupancy="2.66" waitingTime="0.00" timeLoss="2.47" speed="12.92" speedRelative="0.93" departed="0" arrived="3" entered="2" left="0" laneChangedFrom="0" laneChangedTo="0"/>
        <edge id="t_s" sampledSeconds="32.43" traveltime="14.49" overlapTraveltime="14.88" density="17.40" laneDensity="5.80" occupancy="2.84" waitingTime="0.00" timeLoss="2.97" speed="12.86" speedRelative="0.93" departed="0" arrived="2" entered="1" left="0" laneChangedFrom="0" laneChangedTo="0"/>
        <edge id="t_w" sampledSeconds="19.05" traveltime="15.40" overlapTraveltime="15.78" density="10.22" laneDensity="3.41" occupancy="1.62" waitingTime="0.00" timeLoss="2.88" speed="12.13" speedRelative="0.87" departed="0" arrived="1" entered="2" left="0" laneChangedFrom="0" laneChangedTo="0"/>