<?xml version="1.0" encoding="UTF-8"?>

<!-- generated on 2025-08-18 17:06:21 by Eclipse SUMO GUI Version 1.16.0
<configuration xmlns:xsi="http://www.w3.org/2001/XMLSchema-instance" xsi:noNamespaceSchemaLocation="http://sumo.dlr.de/xsd/sumoConfiguration.xsd">

    <input>
        <net-file value="E:\txw\sumo-rl\nets\syc\1x1\Eq_350_BC_Wstr_Estr-Wleft_Eleft\Eq_350_40-60-20-80-Bus-Car\syc_4phases.net.xml"/>
        <route-files value="E:\txw\sumo-rl\nets\syc\1x1\Eq_350_BC_Wstr_Estr-Wleft_Eleft\Eq_350_40-60-20-80-Bus-Car\Eq_350_40-60-20-80-Bus-Car.rou.xml"/>
        <additional-files value="E:\txw\sumo-rl\nets\syc\1x1\Eq_350_BC_Wstr_Estr-Wleft_Eleft\Eq_350_40-60-20-80-Bus-Car\1x1_outputs.add.xml"/>
    </input>

    <output>
        <fcd-output value="E:\txw\sumo-rl\nets\syc\1x1\Eq_350_BC_Wstr_Estr-Wleft_Eleft\Eq_350_40-60-20-80-Bus-Car\output/fcd_output.xml"/>
        <tripinfo-output value="E:\txw\sumo-rl\nets\syc\1x1\Eq_350_BC_Wstr_Estr-Wleft_Eleft\Eq_350_40-60-20-80-Bus-Car\output/tripinfo.out.xml"/>
    </output>

    <time>
        <begin value="0"/>
        <end value="1000"/>
    </time>

</configuration>
-->

<fcd-export xmlns:xsi="http://www.w3.org/2001/XMLSchema-instance" xsi:noNamespaceSchemaLocation="http://sumo.dlr.de/xsd/fcd_file.xsd">
    <timestep time="0.00">
        <vehicle id="flow_en_car.0" x="194.90" y="8.00" angle="270.00" type="car" speed="13.03" pos="5.10" lane="e_t_0" slope="0.00"/>
        <vehicle id="flow_es_car.0" x="194.90" y="1.60" angle="270.00" type="car" speed="14.31" pos="5.10" lane="e_t_2" slope="0.00"/>
        <vehicle id="flow_ew_car.0" x="194.90" y="4.80" angle="270.00" type="car" speed="14.72" pos="5.10" lane="e_t_1" slope="0.00"/>
        <vehicle id="flow_ne_car.0" x="-1.60" y="194.90" angle="180.00" type="car" speed="14.54" pos="5.10" lane="n_t_2" slope="0.00"/>
        <vehicle id="flow_ns_car.0" x="-4.80" y="194.90" angle="180.00" type="car" speed="15.15" pos="5.10" lane="n_t_1" slope="0.00"/>
        <vehicle id="flow_nw_car.0" x="-8.00" y="194.90" angle="180.00" type="car" speed="13.77" pos="5.10" lane="n_t_0" slope="0.00"/>
        <vehicle id="flow_se_car.0" x="8.00" y="-194.90" angle="0.00" type="car" speed="12.87" pos="5.10" lane="s_t_0" slope="0.00"/>
        <vehicle id="flow_sn_car.0" x="4.80" y="-194.90" angle="0.00" type="car" speed="14.26" pos="5.10" lane="s_t_1" slope="0.00"/>
        <vehicle id="flow_sw_car.0" x="1.60" y="-194.90" angle="0.00" type="car" speed="15.60" pos="5.10" lane="s_t_2" slope="0.00"/>
        <vehicle id="flow_we_car.0" x="-194.90" y="-4.80" angle="90.00" type="car" speed="14.03" pos="5.10" lane="w_t_1" slope="0.00"/>
        <vehicle id="flow_wn_car.0" x="-194.90" y="-1.60" angle="90.00" type="car" speed="14.53" pos="5.10" lane="w_t_2" slope="0.00"/>
        <vehicle id="flow_ws_car.0" x="-194.90" y="-8.00" angle="90.00" type="car" speed="11.90" pos="5.10" lane="w_t_0" slope="0.00"/>
    </timestep>
    <timestep time="1.00">
        <vehicle id="flow_en_car.0" x="183.13" y="8.00" angle="270.00" type="car" speed="11.77" pos="16.87" lane="e_t_0" slope="0.00"/>
        <vehicle id="flow_es_bus.0" x="194.90" y="1.60" angle="270.00" type="bus" speed="11.30" pos="5.10" lane="e_t_2" slope="0.00"/>
        <vehicle id="flow_es_car.0" x="181.17" y="1.60" angle="270.00" type="car" speed="13.73" pos="18.83" lane="e_t_2" slope="0.00"/>
        <vehicle id="flow_ew_bus.0" x="194.90" y="4.80" angle="270.00" type="bus" speed="11.45" pos="5.10" lane="e_t_1" slope="0.00"/>
        <vehicle id="flow_ew_car.0" x="181.06" y="4.80" angle="270.00" type="car" speed="13.84" pos="18.94" lane="e_t_1" slope="0.00"/>
        <vehicle id="flow_ne_car.0" x="-1.60" y="181.58" angle="180.00" type="car" speed="13.32" pos="18.42" lane="n_t_2" slope="0.00"/>
        <vehicle id="flow_ns_car.0" x="-4.80" y="180.15" angle="180.00" type="car" speed="14.75" pos="19.85" lane="n_t_1" slope="0.00"/>
        <vehicle id="flow_nw_car.0" x="-8.00" y="181.77" angle="180.00" type="car" speed="13.13" pos="18.23" lane="n_t_0" slope="0.00"/>
        <vehicle id="flow_se_car.0" x="8.00" y="-182.31" angle="0.00" type="car" speed="12.59" pos="17.69" lane="s_t_0" slope="0.00"/>
        <vehicle id="flow_sn_car.0" x="4.80" y="-181.89" angle="0.00" type="car" speed="13.01" pos="18.11" lane="s_t_1" slope="0.00"/>
        <vehicle id="flow_sw_car.0" x="1.60" y="-180.24" angle="0.00" type="car" speed="14.66" pos="19.76" lane="s_t_2" slope="0.00"/>
        <vehicle id="flow_we_bus.0" x="-194.90" y="-4.80" angle="90.00" type="bus" speed="10.48" pos="5.10" lane="w_t_1" slope="0.00"/>
        <vehicle id="flow_we_car.0" x="-181.92" y="-4.80" angle="90.00" type="car" speed="12.98" pos="18.08" lane="w_t_1" slope="0.00"/>
        <vehicle id="flow_wn_bus.0" x="-194.90" y="-1.60" angle="90.00" type="bus" speed="11.90" pos="5.10" lane="w_t_2" slope="0.00"/>
        <vehicle id="flow_wn_car.0" x="-180.73" y="-1.60" angle="90.00" type="car" speed="14.17" pos="19.27" lane="w_t_2" slope="0.00"/>
        <vehicle id="flow_ws_car.0" x="-183.42" y="-8.00" angle="90.00" type="car" speed="11.48" pos="16.58" lane="w_t_0" slope="0.00"/>
    </timestep>
    <timestep time="2.00">
        <vehicle id="flow_en_car.0" x="170.64" y="8.00" angle="270.00" type="car" speed="12.49" pos="29.36" lane="e_t_0" slope="0.00"/>
        <vehicle id="flow_es_bus.0" x="184.67" y="1.60" angle="270.00" type="bus" speed="10.23" pos="15.33" lane="e_t_2" slope="0.00"/>
        <vehicle id="flow_es_car.0" x="167.64" y="1.60" angle="270.00" type="car" speed="13.53" pos="32.36" lane="e_t_2" slope="0.00"/>
        <vehicle id="flow_ew_bus.0" x="184.60" y="4.80" angle="270.00" type="bus" speed="10.30" pos="15.40" lane="e_t_1" slope="0.00"/>
        <vehicle id="flow_ew_car.0" x="166.75" y="4.80" angle="270.00" type="car" speed="14.32" pos="33.25" lane="e_t_1" slope="0.00"/>
        <vehicle id="flow_ne_car.0" x="-1.60" y="167.12" angle="180.00" type="car" speed="14.46" pos="32.88" lane="n_t_2" slope="0.00"/>
        <vehicle id="flow_ns_car.0" x="-4.80" y="165.59" angle="180.00" type="car" speed="14.56" pos="34.41" lane="n_t_1" slope="0.00"/>
        <vehicle id="flow_nw_car.0" x="-8.00" y="168.12" angle="180.00" type="car" speed="13.65" pos="31.88" lane="n_t_0" slope="0.00"/>
        <vehicle id="flow_se_car.0" x="8.00" y="-169.57" angle="0.00" type="car" speed="12.74" pos="30.43" lane="s_t_0" slope="0.00"/>
        <vehicle id="flow_sn_car.0" x="4.80" y="-168.73" angle="0.00" type="car" speed="13.16" pos="31.27" lane="s_t_1" slope="0.00"/>
        <vehicle id="flow_sw_car.0" x="1.60" y="-164.88" angle="0.00" type="car" speed="15.36" pos="35.12" lane="s_t_2" slope="0.00"/>
        <vehicle id="flow_we_bus.0" x="-184.98" y="-4.80" angle="90.00" type="bus" speed="9.92" pos="15.02" lane="w_t_1" slope="0.00"/>
        <vehicle id="flow_we_car.0" x="-169.09" y="-4.80" angle="90.00" type="car" speed="12.84" pos="30.91" lane="w_t_1" slope="0.00"/>
        <vehicle id="flow_wn_bus.0" x="-183.65" y="-1.60" angle="90.00" type="bus" speed="11.25" pos="16.35" lane="w_t_2" slope="0.00"/>
        <vehicle id="flow_wn_car.0" x="-166.94" y="-1.60" angle="90.00" type="car" speed="13.79" pos="33.06" lane="w_t_2" slope="0.00"/>
        <vehicle id="flow_ws_car.0" x="-171.67" y="-8.00" angle="90.00" type="car" speed="11.74" pos="28.33" lane="w_t_0" slope="0.00"/>
    </timestep>
    <timestep time="3.00">
        <vehicle id="flow_en_car.0" x="158.62" y="8.00" angle="270.00" type="car" speed="12.02" pos="41.38" lane="e_t_0" slope="0.00"/>
        <vehicle id="flow_es_bus.0" x="174.28" y="1.60" angle="270.00" type="bus" speed="10.39" pos="25.72" lane="e_t_2" slope="0.00"/>
        <vehicle id="flow_es_car.0" x="153.50" y="1.60" angle="270.00" type="car" speed="14.14" pos="46.50" lane="e_t_2" slope="0.00"/>
        <vehicle id="flow_ew_bus.0" x="171.73" y="4.80" angle="270.00" type="bus" speed="12.87" pos="28.27" lane="e_t_1" slope="0.00"/>
        <vehicle id="flow_ew_car.0" x="153.21" y="4.80" angle="270.00" type="car" speed="13.54" pos="46.79" lane="e_t_1" slope="0.00"/>
        <vehicle id="flow_ne_car.0" x="-1.60" y="152.82" angle="180.00" type="car" speed="14.29" pos="47.18" lane="n_t_2" slope="0.00"/>
        <vehicle id="flow_ns_car.0" x="-4.80" y="150.45" angle="180.00" type="car" speed="15.14" pos="49.55" lane="n_t_1" slope="0.00"/>
        <vehicle id="flow_nw_car.0" x="-8.00" y="155.57" angle="180.00" type="car" speed="12.55" pos="44.43" lane="n_t_0" slope="0.00"/>
        <vehicle id="flow_se_car.0" x="8.00" y="-157.57" angle="0.00" type="car" speed="12.00" pos="42.43" lane="s_t_0" slope="0.00"/>
        <vehicle id="flow_sn_car.0" x="4.80" y="-155.61" angle="0.00" type="car" speed="13.11" pos="44.39" lane="s_t_1" slope="0.00"/>
        <vehicle id="flow_sw_car.0" x="1.60" y="-149.30" angle="0.00" type="car" speed="15.58" pos="50.70" lane="s_t_2" slope="0.00"/>
        <vehicle id="flow_we_bus.0" x="-174.50" y="-4.80" angle="90.00" type="bus" speed="10.48" pos="25.50" lane="w_t_1" slope="0.00"/>
        <vehicle id="flow_we_car.0" x="-156.09" y="-4.80" angle="90.00" type="car" speed="13.00" pos="43.91" lane="w_t_1" slope="0.00"/>
        <vehicle id="flow_wn_bus.0" x="-172.39" y="-1.60" angle="90.00" type="bus" speed="11.26" pos="27.61" lane="w_t_2" slope="0.00"/>
        <vehicle id="flow_wn_car.0" x="-152.42" y="-1.60" angle="90.00" type="car" speed="14.52" pos="47.58" lane="w_t_2" slope="0.00"/>
        <vehicle id="flow_ws_car.0" x="-160.20" y="-8.00" angle="90.00" type="car" speed="11.48" pos="39.80" lane="w_t_0" slope="0.00"/>
    </timestep>
    <timestep time="4.00">
        <vehicle id="flow_en_car.0" x="146.33" y="8.00" angle="270.00" type="car" speed="12.29" pos="53.67" lane="e_t_0" slope="0.00"/>
        <vehicle id="flow_es_bus.0" x="163.91" y="1.60" angle="270.00" type="bus" speed="10.37" pos="36.09" lane="e_t_2" slope="0.00"/>
        <vehicle id="flow_es_car.0" x="140.03" y="1.60" angle="270.00" type="car" speed="13.48" pos="59.97" lane="e_t_2" slope="0.00"/>
        <vehicle id="flow_ew_bus.0" x="160.17" y="4.80" angle="270.00" type="bus" speed="11.55" pos="39.83" lane="e_t_1" slope="0.00"/>
        <vehicle id="flow_ew_car.0" x="138.56" y="4.80" angle="270.00" type="car" speed="14.65" pos="61.44" lane="e_t_1" slope="0.00"/>
        <vehicle id="flow_ne_car.0" x="-1.60" y="138.67" angle="180.00" type="car" speed="14.16" pos="61.33" lane="n_t_2" slope="0.00"/>
        <vehicle id="flow_ns_car.0" x="-4.80" y="135.72" angle="180.00" type="car" speed="14.73" pos="64.28" lane="n_t_1" slope="0.00"/>
        <vehicle id="flow_nw_car.0" x="-8.00" y="142.02" angle="180.00" type="car" speed="13.55" pos="57.98" lane="n_t_0" slope="0.00"/>
        <vehicle id="flow_se_car.0" x="8.00" y="-145.50" angle="0.00" type="car" speed="12.07" pos="54.50" lane="s_t_0" slope="0.00"/>
        <vehicle id="flow_sn_car.0" x="4.80" y="-141.41" angle="0.00" type="car" speed="14.21" pos="58.59" lane="s_t_1" slope="0.00"/>
        <vehicle id="flow_sw_car.0" x="1.60" y="-133.87" angle="0.00" type="car" speed="15.43" pos="66.13" lane="s_t_2" slope="0.00"/>
        <vehicle id="flow_we_bus.0" x="-162.50" y="-4.80" angle="90.00" type="bus" speed="12.00" pos="37.50" lane="w_t_1" slope="0.00"/>
        <vehicle id="flow_we_car.0" x="-142.91" y="-4.80" angle="90.00" type="car" speed="13.18" pos="57.09" lane="w_t_1" slope="0.00"/>
        <vehicle id="flow_wn_bus.0" x="-161.29" y="-1.60" angle="90.00" type="bus" speed="11.11" pos="38.71" lane="w_t_2" slope="0.00"/>
        <vehicle id="flow_wn_car.0" x="-139.10" y="-1.60" angle="90.00" type="car" speed="13.32" pos="60.90" lane="w_t_2" slope="0.00"/>
        <vehicle id="flow_ws_car.0" x="-149.50" y="-8.00" angle="90.00" type="car" speed="10.70" pos="50.50" lane="w_t_0" slope="0.00"/>
    </timestep>
    <timestep time="5.00">
        <vehicle id="flow_en_car.0" x="133.37" y="8.00" angle="270.00" type="car" speed="12.96" pos="66.63" lane="e_t_0" slope="0.00"/>
        <vehicle id="flow_es_bus.0" x="152.81" y="1.60" angle="270.00" type="bus" speed="11.09" pos="47.19" lane="e_t_2" slope="0.00"/>
        <vehicle id="flow_es_car.0" x="126.39" y="1.60" angle="270.00" type="car" speed="13.64" pos="73.61" lane="e_t_2" slope="0.00"/>
        <vehicle id="flow_ew_bus.0" x="147.54" y="4.80" angle="270.00" type="bus" speed="12.63" pos="52.46" lane="e_t_1" slope="0.00"/>
        <vehicle id="flow_ew_car.0" x="124.78" y="4.80" angle="270.00" type="car" speed="13.78" pos="75.22" lane="e_t_1" slope="0.00"/>
        <vehicle id="flow_ne_car.0" x="-1.60" y="125.35" angle="180.00" type="car" speed="13.31" pos="74.65" lane="n_t_2" slope="0.00"/>
        <vehicle id="flow_ns_car.0" x="-4.80" y="121.23" angle="180.00" type="car" speed="14.49" pos="78.77" lane="n_t_1" slope="0.00"/>
        <vehicle id="flow_nw_car.0" x="-8.00" y="129.41" angle="180.00" type="car" speed="12.61" pos="70.59" lane="n_t_0" slope="0.00"/>
        <vehicle id="flow_se_car.0" x="8.00" y="-133.54" angle="0.00" type="car" speed="11.96" pos="66.46" lane="s_t_0" slope="0.00"/>
        <vehicle id="flow_sn_car.0" x="4.80" y="-127.70" angle="0.00" type="car" speed="13.71" pos="72.30" lane="s_t_1" slope="0.00"/>
        <vehicle id="flow_sw_car.0" x="1.60" y="-118.42" angle="0.00" type="car" speed="15.46" pos="81.58" lane="s_t_2" slope="0.00"/>
        <vehicle id="flow_we_bus.0" x="-150.15" y="-4.80" angle="90.00" type="bus" speed="12.35" pos="49.85" lane="w_t_1" slope="0.00"/>
        <vehicle id="flow_we_car.0" x="-129.22" y="-4.80" angle="90.00" type="car" speed="13.69" pos="70.78" lane="w_t_1" slope="0.00"/>
        <vehicle id="flow_wn_bus.0" x="-149.42" y="-1.60" angle="90.00" type="bus" speed="11.86" pos="50.58" lane="w_t_2" slope="0.00"/>
        <vehicle id="flow_wn_car.0" x="-125.05" y="-1.60" angle="90.00" type="car" speed="14.05" pos="74.95" lane="w_t_2" slope="0.00"/>
        <vehicle id="flow_ws_car.0" x="-138.80" y="-8.00" angle="90.00" type="car" speed="10.70" pos="61.20" lane="w_t_0" slope="0.00"/>
    </timestep>
    <timestep time="6.00">
        <vehicle id="flow_en_car.0" x="121.19" y="8.00" angle="270.00" type="car" speed="12.19" pos="78.81" lane="e_t_0" slope="0.00"/>
        <vehicle id="flow_es_bus.0" x="142.40" y="1.60" angle="270.00" type="bus" speed="10.42" pos="57.60" lane="e_t_2" slope="0.00"/>
        <vehicle id="flow_es_car.0" x="113.16" y="1.60" angle="270.00" type="car" speed="13.24" pos="86.84" lane="e_t_2" slope="0.00"/>
        <vehicle id="flow_ew_bus.0" x="135.65" y="4.80" angle="270.00" type="bus" speed="11.90" pos="64.35" lane="e_t_1" slope="0.00"/>
        <vehicle id="flow_ew_car.0" x="110.91" y="4.80" angle="270.00" type="car" speed="13.87" pos="89.09" lane="e_t_1" slope="0.00"/>
        <vehicle id="flow_ne_car.0" x="-1.60" y="111.08" angle="180.00" type="car" speed="14.28" pos="88.92" lane="n_t_2" slope="0.00"/>
        <vehicle id="flow_ns_car.0" x="-4.80" y="106.38" angle="180.00" type="car" speed="14.85" pos="93.62" lane="n_t_1" slope="0.00"/>
        <vehicle id="flow_nw_car.0" x="-8.00" y="116.84" angle="180.00" type="car" speed="12.57" pos="83.16" lane="n_t_0" slope="0.00"/>
        <vehicle id="flow_se_car.0" x="8.00" y="-121.00" angle="0.00" type="car" speed="12.54" pos="79.00" lane="s_t_0" slope="0.00"/>
        <vehicle id="flow_sn_car.0" x="4.80" y="-113.62" angle="0.00" type="car" speed="14.07" pos="86.38" lane="s_t_1" slope="0.00"/>
        <vehicle id="flow_sw_car.0" x="1.60" y="-104.02" angle="0.00" type="car" speed="14.39" pos="95.98" lane="s_t_2" slope="0.00"/>
        <vehicle id="flow_we_bus.0" x="-136.82" y="-4.80" angle="90.00" type="bus" speed="13.33" pos="63.18" lane="w_t_1" slope="0.00"/>
        <vehicle id="flow_we_car.0" x="-115.86" y="-4.80" angle="90.00" type="car" speed="13.36" pos="84.14" lane="w_t_1" slope="0.00"/>
        <vehicle id="flow_wn_bus.0" x="-138.40" y="-1.60" angle="90.00" type="bus" speed="11.02" pos="61.60" lane="w_t_2" slope="0.00"/>
        <vehicle id="flow_wn_car.0" x="-111.48" y="-1.60" angle="90.00" type="car" speed="13.56" pos="88.52" lane="w_t_2" slope="0.00"/>
        <vehicle id="flow_ws_car.0" x="-127.46" y="-8.00" angle="90.00" type="car" speed="11.35" pos="72.54" lane="w_t_0" slope="0.00"/>
    </timestep>
    <timestep time="7.00">
        <vehicle id="flow_en_car.0" x="108.99" y="8.00" angle="270.00" type="car" speed="12.20" pos="91.01" lane="e_t_0" slope="0.00"/>
        <vehicle id="flow_es_bus.0" x="131.42" y="1.60" angle="270.00" type="bus" speed="10.97" pos="68.58" lane="e_t_2" slope="0.00"/>
        <vehicle id="flow_es_car.0" x="99.16" y="1.60" angle="270.00" type="car" speed="14.00" pos="100.84" lane="e_t_2" slope="0.00"/>
        <vehicle id="flow_ew_bus.0" x="122.74" y="4.80" angle="270.00" type="bus" speed="12.91" pos="77.26" lane="e_t_1" slope="0.00"/>
        <vehicle id="flow_ew_car.0" x="96.50" y="4.80" angle="270.00" type="car" speed="14.41" pos="103.50" lane="e_t_1" slope="0.00"/>
        <vehicle id="flow_ne_car.0" x="-1.60" y="97.43" angle="180.00" type="car" speed="13.64" pos="102.57" lane="n_t_2" slope="0.00"/>
        <vehicle id="flow_ns_car.0" x="-4.80" y="92.31" angle="180.00" type="car" speed="14.08" pos="107.69" lane="n_t_1" slope="0.00"/>
        <vehicle id="flow_nw_car.0" x="-8.00" y="103.60" angle="180.00" type="car" speed="13.24" pos="96.40" lane="n_t_0" slope="0.00"/>
        <vehicle id="flow_se_car.0" x="8.00" y="-109.25" angle="0.00" type="car" speed="11.76" pos="90.75" lane="s_t_0" slope="0.00"/>
        <vehicle id="flow_sn_car.0" x="4.80" y="-99.48" angle="0.00" type="car" speed="14.14" pos="100.52" lane="s_t_1" slope="0.00"/>
        <vehicle id="flow_sw_car.0" x="1.60" y="-88.68" angle="0.00" type="car" speed="15.34" pos="111.32" lane="s_t_2" slope="0.00"/>
        <vehicle id="flow_we_bus.0" x="-123.56" y="-4.80" angle="90.00" type="bus" speed="13.26" pos="76.44" lane="w_t_1" slope="0.00"/>
        <vehicle id="flow_we_car.0" x="-101.98" y="-4.80" angle="90.00" type="car" speed="13.88" pos="98.02" lane="w_t_1" slope="0.00"/>
        <vehicle id="flow_wn_bus.0" x="-126.72" y="-1.60" angle="90.00" type="bus" speed="11.68" pos="73.28" lane="w_t_2" slope="0.00"/>
        <vehicle id="flow_wn_car.0" x="-97.19" y="-1.60" angle="90.00" type="car" speed="14.30" pos="102.81" lane="w_t_2" slope="0.00"/>
        <vehicle id="flow_ws_car.0" x="-115.96" y="-8.00" angle="90.00" type="car" speed="11.50" pos="84.04" lane="w_t_0" slope="0.00"/>
    </timestep>
    <timestep time="8.00">
        <vehicle id="flow_en_car.0" x="96.69" y="8.00" angle="270.00" type="car" speed="12.30" pos="103.31" lane="e_t_0" slope="0.00"/>
        <vehicle id="flow_es_bus.0" x="121.15" y="1.60" angle="270.00" type="bus" speed="10.27" pos="78.85" lane="e_t_2" slope="0.00"/>
        <vehicle id="flow_es_car.0" x="85.12" y="1.60" angle="270.00" type="car" speed="14.03" pos="114.88" lane="e_t_2" slope="0.00"/>
        <vehicle id="flow_ew_bus.0" x="109.93" y="4.80" angle="270.00" type="bus" speed="12.81" pos="90.07" lane="e_t_1" slope="0.00"/>
        <vehicle id="flow_ew_car.0" x="81.93" y="4.80" angle="270.00" type="car" speed="14.57" pos="118.07" lane="e_t_1" slope="0.00"/>
        <vehicle id="flow_ne_car.0" x="-1.60" y="83.49" angle="180.00" type="car" speed="13.95" pos="116.51" lane="n_t_2" slope="0.00"/>
        <vehicle id="flow_ns_car.0" x="-4.80" y="77.99" angle="180.00" type="car" speed="14.31" pos="122.01" lane="n_t_1" slope="0.00"/>
        <vehicle id="flow_nw_car.0" x="-8.00" y="90.88" angle="180.00" type="car" speed="12.72" pos="109.12" lane="n_t_0" slope="0.00"/>
        <vehicle id="flow_se_car.0" x="8.00" y="-96.76" angle="0.00" type="car" speed="12.49" pos="103.24" lane="s_t_0" slope="0.00"/>
        <vehicle id="flow_sn_car.0" x="4.80" y="-85.40" angle="0.00" type="car" speed="14.08" pos="114.60" lane="s_t_1" slope="0.00"/>
        <vehicle id="flow_sw_car.0" x="1.60" y="-73.16" angle="0.00" type="car" speed="15.52" pos="126.84" lane="s_t_2" slope="0.00"/>
        <vehicle id="flow_we_bus.0" x="-110.43" y="-4.80" angle="90.00" type="bus" speed="13.13" pos="89.57" lane="w_t_1" slope="0.00"/>
        <vehicle id="flow_we_car.0" x="-88.30" y="-4.80" angle="90.00" type="car" speed="13.68" pos="111.70" lane="w_t_1" slope="0.00"/>
        <vehicle id="flow_wn_bus.0" x="-115.27" y="-1.60" angle="90.00" type="bus" speed="11.46" pos="84.73" lane="w_t_2" slope="0.00"/>
        <vehicle id="flow_wn_car.0" x="-82.89" y="-1.60" angle="90.00" type="car" speed="14.30" pos="117.11" lane="w_t_2" slope="0.00"/>
        <vehicle id="flow_ws_car.0" x="-104.56" y="-8.00" angle="90.00" type="car" speed="11.40" pos="95.44" lane="w_t_0" slope="0.00"/>
    </timestep>
    <timestep time="9.00">
        <vehicle id="flow_en_car.0" x="83.81" y="8.00" angle="270.00" type="car" speed="12.88" pos="116.19" lane="e_t_0" slope="0.00"/>
        <vehicle id="flow_es_bus.0" x="110.31" y="1.60" angle="270.00" type="bus" speed="10.85" pos="89.69" lane="e_t_2" slope="0.00"/>
        <vehicle id="flow_es_car.0" x="71.64" y="1.60" angle="270.00" type="car" speed="13.49" pos="128.36" lane="e_t_2" slope="0.00"/>
        <vehicle id="flow_ew_bus.0" x="97.79" y="4.80" angle="270.00" type="bus" speed="12.14" pos="102.21" lane="e_t_1" slope="0.00"/>
        <vehicle id="flow_ew_car.0" x="67.40" y="4.80" angle="270.00" type="car" speed="14.53" pos="132.60" lane="e_t_1" slope="0.00"/>
        <vehicle id="flow_ne_car.0" x="-1.60" y="69.79" angle="180.00" type="car" speed="13.69" pos="130.21" lane="n_t_2" slope="0.00"/>
        <vehicle id="flow_ns_car.0" x="-4.80" y="63.36" angle="180.00" type="car" speed="14.64" pos="136.64" lane="n_t_1" slope="0.00"/>
        <vehicle id="flow_nw_car.0" x="-8.00" y="77.12" angle="180.00" type="car" speed="13.76" pos="122.88" lane="n_t_0" slope="0.00"/>
        <vehicle id="flow_se_car.0" x="8.00" y="-85.00" angle="0.00" type="car" speed="11.76" pos="115.00" lane="s_t_0" slope="0.00"/>
        <vehicle id="flow_sn_car.0" x="4.80" y="-72.24" angle="0.00" type="car" speed="13.16" pos="127.76" lane="s_t_1" slope="0.00"/>
        <vehicle id="flow_sw_car.0" x="1.60" y="-58.12" angle="0.00" type="car" speed="15.05" pos="141.88" lane="s_t_2" slope="0.00"/>
        <vehicle id="flow_we_bus.0" x="-97.60" y="-4.80" angle="90.00" type="bus" speed="12.83" pos="102.40" lane="w_t_1" slope="0.00"/>
        <vehicle id="flow_we_car.0" x="-74.66" y="-4.80" angle="90.00" type="car" speed="13.64" pos="125.34" lane="w_t_1" slope="0.00"/>
        <vehicle id="flow_wn_bus.0" x="-103.27" y="-1.60" angle="90.00" type="bus" speed="11.99" pos="96.73" lane="w_t_2" slope="0.00"/>
        <vehicle id="flow_wn_car.0" x="-68.54" y="-1.60" angle="90.00" type="car" speed="14.35" pos="131.46" lane="w_t_2" slope="0.00"/>
        <vehicle id="flow_ws_car.0" x="-92.86" y="-8.00" angle="90.00" type="car" speed="11.69" pos="107.14" lane="w_t_0" slope="0.00"/>
    </timestep>
    <timestep time="10.00">
        <vehicle id="flow_en_car.0" x="71.42" y="8.00" angle="270.00" type="car" speed="12.38" pos="128.58" lane="e_t_0" slope="0.00"/>
        <vehicle id="flow_es_bus.0" x="99.87" y="1.60" angle="270.00" type="bus" speed="10.44" pos="100.13" lane="e_t_2" slope="0.00"/>
        <vehicle id="flow_es_car.0" x="58.33" y="1.60" angle="270.00" type="car" speed="13.30" pos="141.67" lane="e_t_2" slope="0.00"/>
        <vehicle id="flow_ew_bus.0" x="85.26" y="4.80" angle="270.00" type="bus" speed="12.52" pos="114.74" lane="e_t_1" slope="0.00"/>
        <vehicle id="flow_ew_car.0" x="53.44" y="4.80" angle="270.00" type="car" speed="13.96" pos="146.56" lane="e_t_1" slope="0.00"/>
        <vehicle id="flow_ne_car.0" x="-1.60" y="55.30" angle="180.00" type="car" speed="14.49" pos="144.70" lane="n_t_2" slope="0.00"/>
        <vehicle id="flow_ns_car.0" x="-4.80" y="48.22" angle="180.00" type="car" speed="15.14" pos="151.78" lane="n_t_1" slope="0.00"/>
        <vehicle id="flow_nw_car.0" x="-8.00" y="63.91" angle="180.00" type="car" speed="13.21" pos="136.09" lane="n_t_0" slope="0.00"/>
        <vehicle id="flow_se_car.0" x="8.00" y="-72.53" angle="0.00" type="car" speed="12.47" pos="127.47" lane="s_t_0" slope="0.00"/>
        <vehicle id="flow_sn_car.0" x="4.80" y="-58.52" angle="0.00" type="car" speed="13.71" pos="141.48" lane="s_t_1" slope="0.00"/>
        <vehicle id="flow_sw_car.0" x="1.60" y="-42.81" angle="0.00" type="car" speed="15.31" pos="157.19" lane="s_t_2" slope="0.00"/>
        <vehicle id="flow_we_bus.0" x="-84.15" y="-4.80" angle="90.00" type="bus" speed="13.45" pos="115.85" lane="w_t_1" slope="0.00"/>
        <vehicle id="flow_we_car.0" x="-61.71" y="-4.80" angle="90.00" type="car" speed="12.95" pos="138.29" lane="w_t_1" slope="0.00"/>
        <vehicle id="flow_wn_bus.0" x="-91.23" y="-1.60" angle="90.00" type="bus" speed="12.04" pos="108.77" lane="w_t_2" slope="0.00"/>
        <vehicle id="flow_wn_car.0" x="-55.19" y="-1.60" angle="90.00" type="car" speed="13.36" pos="144.81" lane="w_t_2" slope="0.00"/>
        <vehicle id="flow_ws_car.0" x="-81.98" y="-8.00" angle="90.00" type="car" speed="10.88" pos="118.02" lane="w_t_0" slope="0.00"/>
    </timestep>
    <timestep time="11.00">
        <vehicle id="flow_en_car.0" x="58.91" y="8.00" angle="270.00" type="car" speed="12.52" pos="141.09" lane="e_t_0" slope="0.00"/>
        <vehicle id="flow_en_car.1" x="194.90" y="8.00" angle="270.00" type="car" speed="12.20" pos="5.10" lane="e_t_0" slope="0.00"/>
        <vehicle id="flow_es_bus.0" x="89.13" y="1.60" angle="270.00" type="bus" speed="10.74" pos="110.87" lane="e_t_2" slope="0.00"/>
        <vehicle id="flow_es_car.0" x="44.21" y="1.60" angle="270.00" type="car" speed="14.12" pos="155.79" lane="e_t_2" slope="0.00"/>
        <vehicle id="flow_ew_bus.0" x="73.19" y="4.80" angle="270.00" type="bus" speed="12.08" pos="126.81" lane="e_t_1" slope="0.00"/>
        <vehicle id="flow_ew_car.0" x="40.00" y="4.80" angle="270.00" type="car" speed="13.44" pos="160.00" lane="e_t_1" slope="0.00"/>
        <vehicle id="flow_ne_car.0" x="-1.60" y="41.15" angle="180.00" type="car" speed="14.15" pos="158.85" lane="n_t_2" slope="0.00"/>
        <vehicle id="flow_ne_car.1" x="-1.60" y="194.90" angle="180.00" type="car" speed="14.14" pos="5.10" lane="n_t_2" slope="0.00"/>
        <vehicle id="flow_ns_car.0" x="-4.80" y="34.30" angle="180.00" type="car" speed="13.91" pos="165.70" lane="n_t_1" slope="0.00"/>
        <vehicle id="flow_ns_car.1" x="-4.80" y="194.90" angle="180.00" type="car" speed="13.00" pos="5.10" lane="n_t_1" slope="0.00"/>
        <vehicle id="flow_nw_car.0" x="-8.00" y="51.34" angle="180.00" type="car" speed="12.58" pos="148.66" lane="n_t_0" slope="0.00"/>
        <vehicle id="flow_nw_car.1" x="-8.00" y="194.90" angle="180.00" type="car" speed="13.54" pos="5.10" lane="n_t_0" slope="0.00"/>
        <vehicle id="flow_se_car.0" x="8.00" y="-59.75" angle="0.00" type="car" speed="12.78" pos="140.25" lane="s_t_0" slope="0.00"/>
        <vehicle id="flow_se_car.1" x="8.00" y="-194.90" angle="0.00" type="car" speed="12.36" pos="5.10" lane="s_t_0" slope="0.00"/>
        <vehicle id="flow_sn_car.0" x="4.80" y="-44.70" angle="0.00" type="car" speed="13.83" pos="155.30" lane="s_t_1" slope="0.00"/>
        <vehicle id="flow_sn_car.1" x="4.80" y="-194.90" angle="0.00" type="car" speed="16.09" pos="5.10" lane="s_t_1" slope="0.00"/>
        <vehicle id="flow_sw_car.0" x="1.60" y="-29.14" angle="0.00" type="car" speed="13.67" pos="170.86" lane="s_t_2" slope="0.00"/>
        <vehicle id="flow_sw_car.1" x="1.60" y="-194.90" angle="0.00" type="car" speed="14.03" pos="5.10" lane="s_t_2" slope="0.00"/>
        <vehicle id="flow_we_bus.0" x="-71.46" y="-4.80" angle="90.00" type="bus" speed="12.69" pos="128.54" lane="w_t_1" slope="0.00"/>
        <vehicle id="flow_we_car.0" x="-48.96" y="-4.80" angle="90.00" type="car" speed="12.76" pos="151.04" lane="w_t_1" slope="0.00"/>
        <vehicle id="flow_wn_bus.0" x="-79.09" y="-1.60" angle="90.00" type="bus" speed="12.14" pos="120.91" lane="w_t_2" slope="0.00"/>
        <vehicle id="flow_wn_car.0" x="-41.55" y="-1.60" angle="90.00" type="car" speed="13.63" pos="158.45" lane="w_t_2" slope="0.00"/>
        <vehicle id="flow_ws_car.0" x="-70.55" y="-8.00" angle="90.00" type="car" speed="11.43" pos="129.45" lane="w_t_0" slope="0.00"/>
        <vehicle id="flow_ws_car.1" x="-194.90" y="-8.00" angle="90.00" type="car" speed="13.08" pos="5.10" lane="w_t_0" slope="0.00"/>
    </timestep>
    <timestep time="12.00">
        <vehicle id="flow_en_car.0" x="46.51" y="8.00" angle="270.00" type="car" speed="12.40" pos="153.49" lane="e_t_0" slope="0.00"/>
        <vehicle id="flow_en_car.1" x="183.89" y="8.00" angle="270.00" type="car" speed="11.01" pos="16.11" lane="e_t_0" slope="0.00"/>
        <vehicle id="flow_es_bus.0" x="77.68" y="1.60" angle="270.00" type="bus" speed="11.46" pos="122.32" lane="e_t_2" slope="0.00"/>
        <vehicle id="flow_es_car.0" x="30.83" y="1.60" angle="270.00" type="car" speed="13.38" pos="169.17" lane="e_t_2" slope="0.00"/>
        <vehicle id="flow_ew_bus.0" x="61.31" y="4.80" angle="270.00" type="bus" speed="11.87" pos="138.69" lane="e_t_1" slope="0.00"/>
        <vehicle id="flow_ew_car.0" x="25.62" y="4.80" angle="270.00" type="car" speed="14.39" pos="174.38" lane="e_t_1" slope="0.00"/>
        <vehicle id="flow_ne_car.0" x="-1.60" y="28.50" angle="180.00" type="car" speed="12.65" pos="171.50" lane="n_t_2" slope="0.00"/>
        <vehicle id="flow_ne_car.1" x="-1.60" y="181.64" angle="180.00" type="car" speed="13.26" pos="18.36" lane="n_t_2" slope="0.00"/>
        <vehicle id="flow_ns_car.0" x="-4.80" y="24.13" angle="180.00" type="car" speed="10.17" pos="175.87" lane="n_t_1" slope="0.00"/>
        <vehicle id="flow_ns_car.1" x="-4.80" y="182.92" angle="180.00" type="car" speed="11.98" pos="17.08" lane="n_t_1" slope="0.00"/>