<?xml version="1.0" encoding="UTF-8"?>

<!-- generated on 2025-08-18 17:06:21 by Eclipse SUMO GUI Version 1.16.0
<configuration xmlns:xsi="http://www.w3.org/2001/XMLSchema-instance" xsi:noNamespaceSchemaLocation="http://sumo.dlr.de/xsd/sumoConfiguration.xsd">

    <input>
        <net-file value="E:\txw\sumo-rl\nets\syc\1x1\Eq_350_BC_Wstr_Estr-Wleft_Eleft\Eq_350_40-60-20-80-Bus-Car\syc_4phases.net.xml"/>
        <route-files value="E:\txw\sumo-rl\nets\syc\1x1\Eq_350_BC_Wstr_Estr-Wleft_Eleft\Eq_350_40-60-20-80-Bus-Car\Eq_350_40-60-20-80-Bus-Car.rou.xml"/>
        <additional-files value="E:\txw\sumo-rl\nets\syc\1x1\Eq_350_BC_Wstr_Estr-Wleft_Eleft\Eq_350_40-60-20-80-Bus-Car\1x1_outputs.add.xml"/>
    </input>

    <output>
        <fcd-output value="E:\txw\sumo-rl\nets\syc\1x1\Eq_350_BC_Wstr_Estr-Wleft_Eleft\Eq_350_40-60-20-80-Bus-Car\output/fcd_output.xml"/>
        <tripinfo-output value="E:\txw\sumo-rl\nets\syc\1x1\Eq_350_BC_Wstr_Estr-Wleft_Eleft\Eq_350_40-60-20-80-Bus-Car\output/tripinfo.out.xml"/>
    </output>

    <time>
        <begin value="0"/>
        <end value="1000"/>
    </time>

</configuration>
-->

<tripinfos xmlns:xsi="http://www.w3.org/2001/XMLSchema-instance" xsi:noNamespaceSchemaLocation="http://sumo.dlr.de/xsd/tripinfo_file.xsd">
    <tripinfo id="flow_ew_car.0" depart="0.00" departLane="e_t_1" departPos="5.10" departSpeed="14.72" departDelay="0.00" arrival="29.00" arrivalLane="t_w_1" arrivalPos="186.40" arrivalSpeed="13.61" duration="29.00" routeLength="394.90" waitingTime="0.00" waitingCount="0" stopTime="0.00" timeLoss="1.28" rerouteNo="0" devices="tripinfo_flow_ew_car.0 fcd_flow_ew_car.0" vType="car" speedFactor="1.06" vaporized=""/>
    <tripinfo id="flow_we_car.0" depart="0.00" departLane="w_t_1" departPos="5.10" departSpeed="14.03" departDelay="0.00" arrival="30.00" arrivalLane="t_e_1" arrivalPos="186.40" arrivalSpeed="13.86" duration="30.00" routeLength="394.90" waitingTime="0.00" waitingCount="0" stopTime="0.00" timeLoss="1.31" rerouteNo="0" devices="tripinfo_flow_we_car.0 fcd_flow_we_car.0" vType="car" speedFactor="1.01" vaporized=""/>
    <tripinfo id="flow_we_bus.0" depart="1.00" departLane="w_t_1" departPos="5.10" departSpeed="10.48" departDelay="1.00" arrival="32.00" arrivalLane="t_e_1" arrivalPos="186.40" arrivalSpeed="13.90" duration="31.00" routeLength="394.90" waitingTime="0.00" waitingCount="0" stopTime="0.00" timeLoss="3.98" rerouteNo="0" devices="tripinfo_flow_we_bus.0 fcd_flow_we_bus.0" vType="bus" speedFactor="1.08" vaporized=""/>
    <tripinfo id="flow_nw_car.0" depart="0.00" departLane="n_t_0" departPos="5.10" departSpeed="13.77" departDelay="0.00" arrival="32.00" arrivalLane="t_w_0" arrivalPos="186.40" arrivalSpeed="12.98" duration="32.00" routeLength="376.73" waitingTime="0.00" waitingCount="0" stopTime="0.00" timeLoss="3.44" rerouteNo="0" devices="tripinfo_flow_nw_car.0 fcd_flow_nw_car.0" vType="car" speedFactor="0.99" vaporized=""/>
    <tripinfo id="flow_en_car.0" depart="0.00" departLane="e_t_0" departPos="5.10" departSpeed="13.03" departDelay="0.00" arrival="33.00" arrivalLane="t_n_0" arrivalPos="186.40" arrivalSpeed="12.60" duration="33.00" routeLength="376.73" waitingTime="0.00" waitingCount="0" stopTime="0.00" timeLoss="3.09" rerouteNo="0" devices="tripinfo_flow_en_car.0 fcd_flow_en_car.0" vType="car" speedFactor="0.94" vaporized=""/>
    <tripinfo id="flow_ew_bus.0" depart="1.00" departLane="e_t_1" departPos="5.10" departSpeed="11.45" departDelay="1.00" arrival="34.00" arrivalLane="t_w_1" arrivalPos="186.40" arrivalSpeed="12.83" duration="33.00" routeLength="394.90" waitingTime="0.00" waitingCount="0" stopTime="0.00" timeLoss="1.91" rerouteNo="0" devices="tripinfo_flow_ew_bus.0 fcd_flow_ew_bus.0" vType="bus" speedFactor="0.94" vaporized=""/>
    <tripinfo id="flow_se_car.0" depart="0.00" departLane="s_t_0" departPos="5.10" departSpeed="12.87" departDelay="0.00" arrival="34.00" arrivalLane="t_e_0" arrivalPos="186.40" arrivalSpeed="11.84" duration="34.00" routeLength="376.73" waitingTime="0.00" waitingCount="0" stopTime="0.00" timeLoss="3.35" rerouteNo="0" devices="tripinfo_flow_se_car.0 fcd_flow_se_car.0" vType="car" speedFactor="0.93" vaporized=""/>
    <tripinfo id="flow_ws_car.0" depart="0.00" departLane="w_t_0" departPos="5.10" departSpeed="11.90" departDelay="0.00" arrival="36.00" arrivalLane="t_s_0" arrivalPos="186.40" arrivalSpeed="10.91" duration="36.00" routeLength="376.73" waitingTime="0.00" waitingCount="0" stopTime="0.00" timeLoss="3.11" rerouteNo="0" devices="tripinfo_flow_ws_car.0 fcd_flow_ws_car.0" vType="car" speedFactor="0.86" vaporized=""/>
    <tripinfo id="flow_nw_car.1" depart="11.00" departLane="n_t_0" departPos="5.10" departSpeed="13.54" departDelay="0.71" arrival="43.00" arrivalLane="t_w_0" arrivalPos="186.40" arrivalSpeed="12.55" duration="32.00" routeLength="376.73" waitingTime="0.00" waitingCount="0" stopTime="0.00" timeLoss="3.15" rerouteNo="0" devices="tripinfo_flow_nw_car.1 fcd_flow_nw_car.1" vType="car" speedFactor="0.97" vaporized=""/>
    <tripinfo id="flow_ws_car.1" depart="11.00" departLane="w_t_0" departPos="5.10" departSpeed="13.08" departDelay="0.71" arrival="44.00" arrivalLane="t_s_0" arrivalPos="186.40" arrivalSpeed="12.20" duration="33.00" routeLength="376.73" waitingTime="0.00" waitingCount="0" stopTime="0.00" timeLoss="3.63" rerouteNo="0" devices="tripinfo_flow_ws_car.1 fcd_flow_ws_car.1" vType="car" speedFactor="0.94" vaporized=""/>
    <tripinfo id="flow_se_car.1" depart="11.00" departLane="s_t_0" departPos="5.10" departSpeed="12.36" departDelay="0.71" arrival="46.00" arrivalLane="t_e_0" arrivalPos="186.40" arrivalSpeed="11.10" duration="35.00" routeLength="376.73" waitingTime="0.00" waitingCount="0" stopTime="0.00" timeLoss="3.64" rerouteNo="0" devices="tripinfo_flow_se_car.1 fcd_flow_se_car.1" vType="car" speedFactor="0.89" vaporized=""/>
    <tripinfo id="flow_en_car.1" depart="11.00" departLane="e_t_0" departPos="5.10" departSpeed="12.20" departDelay="0.71" arrival="47.00" arrivalLane="t_n_0" arrivalPos="186.40" arrivalSpeed="10.99" duration="36.00" routeLength="376.73" waitingTime="0.00" waitingCount="0" stopTime="0.00" timeLoss="3.42" rerouteNo="0" devices="tripinfo_flow_en_car.1 fcd_flow_en_car.1" vType="car" speedFactor="0.88" vaporized=""/>
    <tripinfo id="flow_en_car.2" depart="21.00" departLane="e_t_0" departPos="5.10" departSpeed="15.72" departDelay="0.43" arrival="49.00" arrivalLane="t_n_0" arrivalPos="186.40" arrivalSpeed="15.11" duration="28.00" routeLength="376.73" waitingTime="0.00" waitingCount="0" stopTime="0.00" timeLoss="2.59" rerouteNo="0" devices="tripinfo_flow_en_car.2 fcd_flow_en_car.2" vType="car" speedFactor="1.13" vaporized=""/>
    <tripinfo id="flow_we_car.1" depart="18.00" departLane="w_t_1" departPos="5.10" departSpeed="13.18" departDelay="0.86" arrival="50.00" arrivalLane="t_e_1" arrivalPos="186.40" arrivalSpeed="11.88" duration="32.00" routeLength="394.90" waitingTime="0.00" waitingCount="0" stopTime="0.00" timeLoss="1.82" rerouteNo="0" devices="tripinfo_flow_we_car.1 fcd_flow_we_car.1" vType="car" speedFactor="0.95" vaporized=""/>
    <tripinfo id="flow_ew_car.1" depart="18.00" departLane="e_t_1" departPos="5.10" departSpeed="12.74" departDelay="0.86" arrival="51.00" arrivalLane="t_w_1" arrivalPos="186.40" arrivalSpeed="12.52" duration="33.00" routeLength="394.90" waitingTime="0.00" waitingCount="0" stopTime="0.00" timeLoss="1.66" rerouteNo="0" devices="tripinfo_flow_ew_car.1 fcd_flow_ew_car.1" vType="car" speedFactor="0.92" vaporized=""/>
    <tripinfo id="flow_nw_car.2" depart="21.00" departLane="n_t_0" departPos="5.10" departSpeed="13.82" departDelay="0.43" arrival="55.00" arrivalLane="t_w_0" arrivalPos="186.40" arrivalSpeed="13.03" duration="34.00" routeLength="376.73" waitingTime="0.00" waitingCount="0" stopTime="0.00" timeLoss="5.56" rerouteNo="0" devices="tripinfo_flow_nw_car.2 fcd_flow_nw_car.2" vType="car" speedFactor="0.99" vaporized=""/>
    <tripinfo id="flow_se_car.2" depart="21.00" departLane="s_t_0" departPos="5.10" departSpeed="14.16" departDelay="0.43" arrival="55.00" arrivalLane="t_e_0" arrivalPos="186.40" arrivalSpeed="14.02" duration="34.00" routeLength="376.73" waitingTime="0.00" waitingCount="0" stopTime="0.00" timeLoss="6.21" rerouteNo="0" devices="tripinfo_flow_se_car.2 fcd_flow_se_car.2" vType="car" speedFactor="1.02" vaporized=""/>
    <tripinfo id="flow_es_car.0" depart="0.00" departLane="e_t_2" departPos="5.10" departSpeed="14.31" departDelay="0.00" arrival="56.00" arrivalLane="t_s_2" arrivalPos="186.40" arrivalSpeed="13.55" duration="56.00" routeLength="392.21" waitingTime="20.00" waitingCount="1" stopTime="0.00" timeLoss="27.95" rerouteNo="0" devices="tripinfo_flow_es_car.0 fcd_flow_es_car.0" vType="car" speedFactor="1.03" vaporized=""/>
    <tripinfo id="flow_wn_car.0" depart="0.00" departLane="w_t_2" departPos="5.10" departSpeed="14.53" departDelay="0.00" arrival="56.00" arrivalLane="t_n_2" arrivalPos="186.40" arrivalSpeed="13.73" duration="56.00" routeLength="392.21" waitingTime="22.00" waitingCount="1" stopTime="0.00" timeLoss="27.99" rerouteNo="0" devices="tripinfo_flow_wn_car.0 fcd_flow_wn_car.0" vType="car" speedFactor="1.05" vaporized=""/>
    <tripinfo id="flow_ws_car.2" depart="21.00" departLane="w_t_0" departPos="5.10" departSpeed="12.94" departDelay="0.43" arrival="56.00" arrivalLane="t_s_0" arrivalPos="186.40" arrivalSpeed="12.33" duration="35.00" routeLength="376.73" waitingTime="0.00" waitingCount="0" stopTime="0.00" timeLoss="4.89" rerouteNo="0" devices="tripinfo_flow_ws_car.2 fcd_flow_ws_car.2" vType="car" speedFactor="0.93" vaporized=""/>
    <tripinfo id="flow_wn_bus.0" depart="1.00" departLane="w_t_2" departPos="5.10" departSpeed="11.90" departDelay="1.00" arrival="61.00" arrivalLane="t_n_2" arrivalPos="186.40" arrivalSpeed="11.83" duration="60.00" routeLength="392.21" waitingTime="19.00" waitingCount="1" stopTime="0.00" timeLoss="26.73" rerouteNo="0" devices="tripinfo_flow_wn_bus.0 fcd_flow_wn_bus.0" vType="bus" speedFactor="0.89" vaporized=""/>
    <tripinfo id="flow_en_car.3" depart="31.00" departLane="e_t_0" departPos="5.10" departSpeed="14.31" departDelay="0.14" arrival="61.00" arrivalLane="t_n_0" arrivalPos="186.40" arrivalSpeed="13.95" duration="30.00" routeLength="376.73" waitingTime="0.00" waitingCount="0" stopTime="0.00" timeLoss="3.16" rerouteNo="0" devices="tripinfo_flow_en_car.3 fcd_flow_en_car.3" vType="car" speedFactor="1.03" vaporized=""/>
    <tripinfo id="flow_es_bus.0" depart="1.00" departLane="e_t_2" departPos="5.10" departSpeed="11.30" departDelay="1.00" arrival="62.00" arrivalLane="t_s_2" arrivalPos="186.40" arrivalSpeed="10.94" duration="61.00" routeLength="392.21" waitingTime="17.00" waitingCount="1" stopTime="0.00" timeLoss="25.95" rerouteNo="0" devices="tripinfo_flow_es_bus.0 fcd_flow_es_bus.0" vType="bus" speedFactor="0.83" vaporized=""/>
    <tripinfo id="flow_nw_car.3" depart="31.00" departLane="n_t_0" departPos="5.10" departSpeed="13.85" departDelay="0.14" arrival="62.00" arrivalLane="t_w_0" arrivalPos="186.40" arrivalSpeed="12.95" duration="31.00" routeLength="376.73" waitingTime="0.00" waitingCount="0" stopTime="0.00" timeLoss="2.99" rerouteNo="0" devices="tripinfo_flow_nw_car.3 fcd_flow_nw_car.3" vType="car" speedFactor="1.00" vaporized=""/>
    <tripinfo id="flow_wn_car.1" depart="13.00" departLane="w_t_2" departPos="5.10" departSpeed="12.12" departDelay="0.14" arrival="63.00" arrivalLane="t_n_2" arrivalPos="186.40" arrivalSpeed="11.12" duration="50.00" routeLength="392.21" waitingTime="10.00" waitingCount="1" stopTime="0.00" timeLoss="16.81" rerouteNo="0" devices="tripinfo_flow_wn_car.1 fcd_flow_wn_car.1" vType="car" speedFactor="0.87" vaporized=""/>
    <tripinfo id="flow_es_car.1" depart="13.00" departLane="e_t_2" departPos="5.10" departSpeed="11.47" departDelay="0.14" arrival="64.00" arrivalLane="t_s_2" arrivalPos="186.40" arrivalSpeed="10.96" duration="51.00" routeLength="392.21" waitingTime="8.00" waitingCount="1" stopTime="0.00" timeLoss="15.91" rerouteNo="0" devices="tripinfo_flow_es_car.1 fcd_flow_es_car.1" vType="car" speedFactor="0.83" vaporized=""/>
    <tripinfo id="flow_ws_car.3" depart="31.00" departLane="w_t_0" departPos="5.10" departSpeed="13.29" departDelay="0.14" arrival="64.00" arrivalLane="t_s_0" arrivalPos="186.40" arrivalSpeed="12.70" duration="33.00" routeLength="376.73" waitingTime="0.00" waitingCount="0" stopTime="0.00" timeLoss="3.82" rerouteNo="0" devices="tripinfo_flow_ws_car.3 fcd_flow_ws_car.3" vType="car" speedFactor="0.96" vaporized=""/>
    <tripinfo id="flow_es_car.2" depart="26.00" departLane="e_t_2" departPos="5.10" departSpeed="15.31" departDelay="0.29" arrival="66.00" arrivalLane="t_s_2" arrivalPos="186.40" arrivalSpeed="14.93" duration="40.00" routeLength="392.21" waitingTime="1.00" waitingCount="1" stopTime="0.00" timeLoss="13.15" rerouteNo="0" devices="tripinfo_flow_es_car.2 fcd_flow_es_car.2" vType="car" speedFactor="1.10" vaporized=""/>
    <tripinfo id="flow_wn_car.2" depart="26.00" departLane="w_t_2" departPos="5.10" departSpeed="12.51" departDelay="0.29" arrival="66.00" arrivalLane="t_n_2" arrivalPos="186.40" arrivalSpeed="11.69" duration="40.00" routeLength="392.21" waitingTime="0.00" waitingCount="0" stopTime="0.00" timeLoss="7.35" rerouteNo="0" devices="tripinfo_flow_wn_car.2 fcd_flow_wn_car.2" vType="car" speedFactor="0.90" vaporized=""/>
    <tripinfo id="flow_se_car.3" depart="31.00" departLane="s_t_0" departPos="5.10" departSpeed="12.51" departDelay="0.14" arrival="66.00" arrivalLane="t_e_0" arrivalPos="186.40" arrivalSpeed="11.91" duration="35.00" routeLength="376.73" waitingTime="0.00" waitingCount="0" stopTime="0.00" timeLoss="3.21" rerouteNo="0" devices="tripinfo_flow_se_car.3 fcd_flow_se_car.3" vType="car" speedFactor="0.90" vaporized=""/>
    <tripinfo id="flow_wn_car.3" depart="39.00" departLane="w_t_2" departPos="5.10" departSpeed="16.24" departDelay="0.43" arrival="68.00" arrivalLane="t_n_2" arrivalPos="186.40" arrivalSpeed="15.77" duration="29.00" routeLength="392.21" waitingTime="0.00" waitingCount="0" stopTime="0.00" timeLoss="3.91" rerouteNo="0" devices="tripinfo_flow_wn_car.3 fcd_flow_wn_car.3" vType="car" speedFactor="1.17" vaporized=""/>
    <tripinfo id="flow_ws_car.4" depart="42.00" departLane="w_t_0" departPos="5.10" departSpeed="15.22" departDelay="0.86" arrival="71.00" arrivalLane="t_s_0" arrivalPos="186.40" arrivalSpeed="14.99" duration="29.00" routeLength="376.73" waitingTime="0.00" waitingCount="0" stopTime="0.00" timeLoss="3.19" rerouteNo="0" devices="tripinfo_flow_ws_car.4 fcd_flow_ws_car.4" vType="car" speedFactor="1.10" vaporized=""/>
    <tripinfo id="flow_en_car.4" depart="42.00" departLane="e_t_0" departPos="5.10" departSpeed="14.12" departDelay="0.86" arrival="73.00" arrivalLane="t_n_0" arrivalPos="186.40" arrivalSpeed="13.58" duration="31.00" routeLength="376.73" waitingTime="0.00" waitingCount="0" stopTime="0.00" timeLoss="3.33" rerouteNo="0" devices="tripinfo_flow_en_car.4 fcd_flow_en_car.4" vType="car" speedFactor="1.02" vaporized=""/>
    <tripinfo id="flow_nw_car.4" depart="42.00" departLane="n_t_0" departPos="5.10" departSpeed="14.22" departDelay="0.86" arrival="73.00" arrivalLane="t_w_0" arrivalPos="186.40" arrivalSpeed="13.20" duration="31.00" routeLength="376.73" waitingTime="0.00" waitingCount="0" stopTime="0.00" timeLoss="3.49" rerouteNo="0" devices="tripinfo_flow_nw_car.4 fcd_flow_nw_car.4" vType="car" speedFactor="1.02" vaporized=""/>
    <tripinfo id="flow_se_car.4" depart="42.00" departLane="s_t_0" departPos="5.10" departSpeed="13.47" departDelay="0.86" arrival="74.00" arrivalLane="t_e_0" arrivalPos="186.40" arrivalSpeed="13.03" duration="32.00" routeLength="376.73" waitingTime="0.00" waitingCount="0" stopTime="0.00" timeLoss="3.03" rerouteNo="0" devices="tripinfo_flow_se_car.4 fcd_flow_se_car.4" vType="car" speedFactor="0.97" vaporized=""/>
    <tripinfo id="flow_es_car.3" depart="39.00" departLane="e_t_2" departPos="5.10" departSpeed="11.87" departDelay="0.43" arrival="77.00" arrivalLane="t_s_2" arrivalPos="186.40" arrivalSpeed="11.41" duration="38.00" routeLength="392.21" waitingTime="0.00" waitingCount="0" stopTime="0.00" timeLoss="3.70" rerouteNo="0" devices="tripinfo_flow_es_car.3 fcd_flow_es_car.3" vType="car" speedFactor="0.85" vaporized=""/>
    <tripinfo id="flow_en_car.5" depart="52.00" departLane="e_t_0" departPos="5.10" departSpeed="14.45" departDelay="0.57" arrival="82.00" arrivalLane="t_n_0" arrivalPos="186.40" arrivalSpeed="14.03" duration="30.00" routeLength="376.73" waitingTime="0.00" waitingCount="0" stopTime="0.00" timeLoss="2.75" rerouteNo="0" devices="tripinfo_flow_en_car.5 fcd_flow_en_car.5" vType="car" speedFactor="1.04" vaporized=""/>
    <tripinfo id="flow_ws_car.5" depart="52.00" departLane="w_t_0" departPos="5.10" departSpeed="14.20" departDelay="0.57" arrival="83.00" arrivalLane="t_s_0" arrivalPos="186.40" arrivalSpeed="13.12" duration="31.00" routeLength="376.73" waitingTime="0.00" waitingCount="0" stopTime="0.00" timeLoss="3.07" rerouteNo="0" devices="tripinfo_flow_ws_car.5 fcd_flow_ws_car.5" vType="car" speedFactor="1.02" vaporized=""/>
    <tripinfo id="flow_se_car.5" depart="52.00" departLane="s_t_0" departPos="5.10" departSpeed="13.68" departDelay="0.57" arrival="84.00" arrivalLane="t_e_0" arrivalPos="186.40" arrivalSpeed="13.01" duration="32.00" routeLength="376.73" waitingTime="0.00" waitingCount="0" stopTime="0.00" timeLoss="3.44" rerouteNo="0" devices="tripinfo_flow_se_car.5 fcd_flow_se_car.5" vType="car" speedFactor="0.98" vaporized=""/>
    <tripinfo id="flow_nw_car.5" depart="52.00" departLane="n_t_0" departPos="5.10" departSpeed="13.27" departDelay="0.57" arrival="85.00" arrivalLane="t_w_0" arrivalPos="186.40" arrivalSpeed="12.42" duration="33.00" routeLength="376.73" waitingTime="0.00" waitingCount="0" stopTime="0.00" timeLoss="3.23" rerouteNo="0" devices="tripinfo_flow_nw_car.5 fcd_flow_nw_car.5" vType="car" speedFactor="0.96" vaporized=""/>
    <tripinfo id="flow_es_car.4" depart="52.00" departLane="e_t_2" departPos="5.10" departSpeed="13.02" departDelay="0.57" arrival="86.00" arrivalLane="t_s_2" arrivalPos="186.40" arrivalSpeed="12.75" duration="34.00" routeLength="392.21" waitingTime="0.00" waitingCount="0" stopTime="0.00" timeLoss="2.80" rerouteNo="0" devices="tripinfo_flow_es_car.4 fcd_flow_es_car.4" vType="car" speedFactor="0.94" vaporized=""/>
    <tripinfo id="flow_wn_car.4" depart="52.00" departLane="w_t_2" departPos="5.10" departSpeed="12.60" departDelay="0.57" arrival="88.00" arrivalLane="t_n_2" arrivalPos="186.40" arrivalSpeed="12.52" duration="36.00" routeLength="392.21" waitingTime="0.00" waitingCount="0" stopTime="0.00" timeLoss="3.31" rerouteNo="0" devices="tripinfo_flow_wn_car.4 fcd_flow_wn_car.4" vType="car" speedFactor="0.91" vaporized=""/>
    <tripinfo id="flow_en_car.6" depart="62.00" departLane="e_t_0" departPos="5.10" departSpeed="14.34" departDelay="0.28" arrival="93.00" arrivalLane="t_n_0" arrivalPos="186.40" arrivalSpeed="13.06" duration="31.00" routeLength="376.73" waitingTime="0.00" waitingCount="0" stopTime="0.00" timeLoss="3.87" rerouteNo="0" devices="tripinfo_flow_en_car.6 fcd_flow_en_car.6" vType="car" speedFactor="1.03" vaporized=""/>
    <tripinfo id="flow_nw_car.6" depart="62.00" departLane="n_t_0" departPos="5.10" departSpeed="14.12" departDelay="0.28" arrival="93.00" arrivalLane="t_w_0" arrivalPos="186.40" arrivalSpeed="13.88" duration="31.00" routeLength="376.73" waitingTime="0.00" waitingCount="0" stopTime="0.00" timeLoss="3.33" rerouteNo="0" devices="tripinfo_flow_nw_car.6 fcd_flow_nw_car.6" vType="car" speedFactor="1.02" vaporized=""/>
    <tripinfo id="flow_ns_car.0" depart="0.00" departLane="n_t_1" departPos="5.10" departSpeed="15.15" departDelay="0.00" arrival="94.00" arrivalLane="t_s_1" arrivalPos="186.40" arrivalSpeed="15.08" duration="94.00" routeLength="394.90" waitingTime="60.00" waitingCount="1" stopTime="0.00" timeLoss="67.03" rerouteNo="0" devices="tripinfo_flow_ns_car.0 fcd_flow_ns_car.0" vType="car" speedFactor="1.09" vaporized=""/>
    <tripinfo id="flow_sn_car.0" depart="0.00" departLane="s_t_1" departPos="5.10" departSpeed="14.26" departDelay="0.00" arrival="94.00" arrivalLane="t_n_1" arrivalPos="186.40" arrivalSpeed="13.95" duration="94.00" routeLength="394.90" waitingTime="60.00" waitingCount="1" stopTime="0.00" timeLoss="65.65" rerouteNo="0" devices="tripinfo_flow_sn_car.0 fcd_flow_sn_car.0" vType="car" speedFactor="1.03" vaporized=""/>
    <tripinfo id="flow_ws_car.6" depart="62.00" departLane="w_t_0" departPos="5.10" departSpeed="13.64" departDelay="0.28" arrival="94.00" arrivalLane="t_s_0" arrivalPos="186.40" arrivalSpeed="12.48" duration="32.00" routeLength="376.73" waitingTime="0.00" waitingCount="0" stopTime="0.00" timeLoss="2.78" rerouteNo="0" devices="tripinfo_flow_ws_car.6 fcd_flow_ws_car.6" vType="car" speedFactor="0.98" vaporized=""/>
    <tripinfo id="flow_sn_car.1" depart="11.00" departLane="s_t_1" departPos="5.10" departSpeed="16.09" departDelay="0.71" arrival="95.00" arrivalLane="t_n_1" arrivalPos="186.40" arrivalSpeed="14.97" duration="84.00" routeLength="394.90" waitingTime="50.00" waitingCount="1" stopTime="0.00" timeLoss="59.45" rerouteNo="0" devices="tripinfo_flow_sn_car.1 fcd_flow_sn_car.1" vType="car" speedFactor="1.16" vaporized=""/>
    <tripinfo id="flow_se_car.6" depart="62.00" departLane="s_t_0" departPos="5.10" departSpeed="13.43" departDelay="0.28" arrival="95.00" arrivalLane="t_e_0" arrivalPos="186.40" arrivalSpeed="12.20" duration="33.00" routeLength="376.73" waitingTime="0.00" waitingCount="0" stopTime="0.00" timeLoss="4.00" rerouteNo="0" devices="tripinfo_flow_se_car.6 fcd_flow_se_car.6" vType="car" speedFactor="0.97" vaporized=""/>
    <tripinfo id="flow_ns_car.1" depart="11.00" departLane="n_t_1" departPos="5.10" departSpeed="13.00" departDelay="0.71" arrival="97.00" arrivalLane="t_s_1" arrivalPos="186.40" arrivalSpeed="12.66" duration="86.00" routeLength="394.90" waitingTime="49.00" waitingCount="1" stopTime="0.00" timeLoss="55.60" rerouteNo="0" devices="tripinfo_flow_ns_car.1 fcd_flow_ns_car.1" vType="car" speedFactor="0.94" vaporized=""/>
    <tripinfo id="flow_sn_car.2" depart="21.00" departLane="s_t_1" departPos="5.10" departSpeed="16.03" departDelay="0.43" arrival="97.00" arrivalLane="t_n_1" arrivalPos="186.40" arrivalSpeed="15.30" duration="76.00" routeLength="394.90" waitingTime="42.00" waitingCount="1" stopTime="0.00" timeLoss="51.09" rerouteNo="0" devices="tripinfo_flow_sn_car.2 fcd_flow_sn_car.2" vType="car" speedFactor="1.15" vaporized=""/>
    <tripinfo id="flow_ns_car.2" depart="21.00" departLane="n_t_1" departPos="5.10" departSpeed="16.37" departDelay="0.43" arrival="99.00" arrivalLane="t_s_1" arrivalPos="186.40" arrivalSpeed="15.47" duration="78.00" routeLength="394.90" waitingTime="42.00" waitingCount="1" stopTime="0.00" timeLoss="53.43" rerouteNo="0" devices="tripinfo_flow_ns_car.2 fcd_flow_ns_car.2" vType="car" speedFactor="1.18" vaporized=""/>
    <tripinfo id="flow_sn_car.3" depart="31.00" departLane="s_t_1" departPos="5.10" departSpeed="14.42" departDelay="0.14" arrival="100.00" arrivalLane="t_n_1" arrivalPos="186.40" arrivalSpeed="14.12" duration="69.00" routeLength="394.90" waitingTime="34.00" waitingCount="1" stopTime="0.00" timeLoss="41.20" rerouteNo="0" devices="tripinfo_flow_sn_car.3 fcd_flow_sn_car.3" vType="car" speedFactor="1.04" vaporized=""/>
    <tripinfo id="flow_ns_car.3" depart="31.00" departLane="n_t_1" departPos="5.10" departSpeed="15.17" departDelay="0.14" arrival="101.00" arrivalLane="t_s_1" arrivalPos="186.40" arrivalSpeed="14.06" duration="70.00" routeLength="394.90" waitingTime="34.00" waitingCount="1" stopTime="0.00" timeLoss="43.23" rerouteNo="0" devices="tripinfo_flow_ns_car.3 fcd_flow_ns_car.3" vType="car" speedFactor="1.09" vaporized=""/>
    <tripinfo id="flow_sn_car.4" depart="42.00" departLane="s_t_1" departPos="5.10" departSpeed="13.83" departDelay="0.86" arrival="102.00" arrivalLane="t_n_1" arrivalPos="186.40" arrivalSpeed="13.03" duration="60.00" routeLength="394.90" waitingTime="23.00" waitingCount="1" stopTime="0.00" timeLoss="31.28" rerouteNo="0" devices="tripinfo_flow_sn_car.4 fcd_flow_sn_car.4" vType="car" speedFactor="1.00" vaporized=""/>
    <tripinfo id="flow_nw_car.7" depart="73.00" departLane="n_t_0" departPos="5.10" departSpeed="15.15" departDelay="1.00" arrival="102.00" arrivalLane="t_w_0" arrivalPos="186.40" arrivalSpeed="14.01" duration="29.00" routeLength="376.73" waitingTime="0.00" waitingCount="0" stopTime="0.00" timeLoss="3.24" rerouteNo="0" devices="tripinfo_flow_nw_car.7 fcd_flow_nw_car.7" vType="car" speedFactor="1.09" vaporized=""/>
    <tripinfo id="flow_se_car.7" depart="73.00" departLane="s_t_0" departPos="5.10" departSpeed="14.68" departDelay="1.00" arrival="102.00" arrivalLane="t_e_0" arrivalPos="186.40" arrivalSpeed="13.81" duration="29.00" routeLength="376.73" waitingTime="0.00" waitingCount="0" stopTime="0.00" timeLoss="2.47" rerouteNo="0" devices="tripinfo_flow_se_car.7 fcd_flow_se_car.7" vType="car" speedFactor="1.06" vaporized=""/>
    <tripinfo id="flow_ns_car.4" depart="42.00" departLane="n_t_1" departPos="5.10" departSpeed="13.93" departDelay="0.86" arrival="103.00" arrivalLane="t_s_1" arrivalPos="186.40" arrivalSpeed="13.88" duration="61.00" routeLength="394.90" waitingTime="23.00" waitingCount="1" stopTime="0.00" timeLoss="31.77" rerouteNo="0" devices="tripinfo_flow_ns_car.4 fcd_flow_ns_car.4" vType="car" speedFactor="1.00" vaporized=""/>
    <tripinfo id="flow_ns_car.5" depart="52.00" departLane="n_t_1" departPos="5.10" departSpeed="14.21" departDelay="0.57" arrival="104.00" arrivalLane="t_s_1" arrivalPos="186.40" arrivalSpeed="13.01" duration="52.00" routeLength="394.90" waitingTime="16.00" waitingCount="1" stopTime="0.00" timeLoss="24.11" rerouteNo="0" devices="tripinfo_flow_ns_car.5 fcd_flow_ns_car.5" vType="car" speedFactor="1.02" vaporized=""/>
    <tripinfo id="flow_sn_car.5" depart="52.00" departLane="s_t_1" departPos="5.10" departSpeed="13.51" departDelay="0.57" arrival="104.00" arrivalLane="t_n_1" arrivalPos="186.40" arrivalSpeed="12.88" duration="52.00" routeLength="394.90" waitingTime="15.00" waitingCount="1" stopTime="0.00" timeLoss="22.77" rerouteNo="0" devices="tripinfo_flow_sn_car.5 fcd_flow_sn_car.5" vType="car" speedFactor="0.97" vaporized=""/>
    <tripinfo id="flow_en_car.7" depart="73.00" departLane="e_t_0" departPos="5.10" departSpeed="13.99" departDelay="1.00" arrival="104.00" arrivalLane="t_n_0" arrivalPos="186.40" arrivalSpeed="13.92" duration="31.00" routeLength="376.73" waitingTime="0.00" waitingCount="0" stopTime="0.00" timeLoss="3.39" rerouteNo="0" devices="tripinfo_flow_en_car.7 fcd_flow_en_car.7" vType="car" speedFactor="1.01" vaporized=""/>
    <tripinfo id="flow_ws_car.7" depart="73.00" departLane="w_t_0" departPos="5.10" departSpeed="14.20" departDelay="1.00" arrival="104.00" arrivalLane="t_s_0" arrivalPos="186.40" arrivalSpeed="13.26" duration="31.00" routeLength="376.73" waitingTime="0.00" waitingCount="0" stopTime="0.00" timeLoss="3.31" rerouteNo="0" devices="tripinfo_flow_ws_car.7 fcd_flow_ws_car.7" vType="car" speedFactor="1.02" vaporized=""/>
    <tripinfo id="flow_ns_car.6" depart="62.00" departLane="n_t_1" departPos="5.10" departSpeed="13.99" departDelay="0.28" arrival="106.00" arrivalLane="t_s_1" arrivalPos="186.40" arrivalSpeed="13.83" duration="44.00" routeLength="394.90" waitingTime="8.00" waitingCount="1" stopTime="0.00" timeLoss="15.54" rerouteNo="0" devices="tripinfo_flow_ns_car.6 fcd_flow_ns_car.6" vType="car" speedFactor="1.01" vaporized=""/>
    <tripinfo id="flow_sn_car.6" depart="62.00" departLane="s_t_1" departPos="5.10" departSpeed="15.10" departDelay="0.28" arrival="106.00" arrivalLane="t_n_1" arrivalPos="186.40" arrivalSpeed="14.73" duration="44.00" routeLength="394.90" waitingTime="7.00" waitingCount="1" stopTime="0.00" timeLoss="17.40" rerouteNo="0" devices="tripinfo_flow_sn_car.6 fcd_flow_sn_car.6" vType="car" speedFactor="1.09" vaporized=""/>
    <tripinfo id="flow_ns_car.7" depart="73.00" departLane="n_t_1" departPos="5.10" departSpeed="14.12" departDelay="1.00" arrival="108.00" arrivalLane="t_s_1" arrivalPos="186.40" arrivalSpeed="13.93" duration="35.00" routeLength="394.90" waitingTime="0.00" waitingCount="0" stopTime="0.00" timeLoss="6.49" rerouteNo="0" devices="tripinfo_flow_ns_car.7 fcd_flow_ns_car.7" vType="car" speedFactor="1.02" vaporized=""/>
    <tripinfo id="flow_sn_car.7" depart="73.00" departLane="s_t_1" departPos="5.10" departSpeed="12.39" departDelay="1.00" arrival="110.00" arrivalLane="t_n_1" arrivalPos="186.40" arrivalSpeed="11.64" duration="37.00" routeLength="394.90" waitingTime="0.00" waitingCount="0" stopTime="0.00" timeLoss="4.42" rerouteNo="0" devices="tripinfo_flow_sn_car.7 fcd_flow_sn_car.7" vType="car" speedFactor="0.89" vaporized=""/>
    <tripinfo id="flow_en_car.8" depart="83.00" departLane="e_t_0" departPos="5.10" departSpeed="14.79" departDelay="0.71" arrival="113.00" arrivalLane="t_n_0" arrivalPos="186.40" arrivalSpeed="14.31" duration="30.00" routeLength="376.73" waitingTime="0.00" waitingCount="0" stopTime="0.00" timeLoss="3.34" rerouteNo="0" devices="tripinfo_flow_en_car.8 fcd_flow_en_car.8" vType="car" speedFactor="1.06" vaporized=""/>
    <tripinfo id="flow_ns_car.8" depart="83.00" departLane="n_t_1" departPos="5.10" departSpeed="13.45" departDelay="0.71" arrival="114.00" arrivalLane="t_s_1" arrivalPos="186.40" arrivalSpeed="12.43" duration="31.00" routeLength="394.90" waitingTime="0.00" waitingCount="0" stopTime="0.00" timeLoss="1.63" rerouteNo="0" devices="tripinfo_flow_ns_car.8 fcd_flow_ns_car.8" vType="car" speedFactor="0.97" vaporized=""/>