<?xml version="1.0" encoding="UTF-8"?>

<!-- generated on 2024-05-20 09:22:06 by Eclipse SUMO libsumo Version 1.19.0
<configuration xmlns:xsi="http://www.w3.org/2001/XMLSchema-instance" xsi:noNamespaceSchemaLocation="http://sumo.dlr.de/xsd/libsumoConfiguration.xsd">

    <input>
        <net-file value="nets/syc/1x1/syc_4phases.net.xml"/>
        <route-files value="nets/syc/1x1/syc.rou.xml"/>
        <additional-files value="nets/syc/1x1/1x1_outputs.add.xml"/>
    </input>

    <output>
        <fcd-output value="nets/syc/1x1/output_1x1/fcd_output.xml"/>
        <tripinfo-output value="nets/syc/1x1/output_1x1/tripinfo.out.xml"/>
    </output>

    <time>
        <begin value="0"/>
        <end value="1000"/>
    </time>

    <processing>
        <time-to-teleport value="-1"/>
        <waiting-time-memory value="1000"/>
        <max-depart-delay value="-1"/>
    </processing>

    <random_number>
        <seed value="0"/>
    </random_number>

</configuration>
-->

<meandata xmlns:xsi="http://www.w3.org/2001/XMLSchema-instance" xsi:noNamespaceSchemaLocation="http://sumo.dlr.de/xsd/meandata_file.xsd">
    <interval begin="0.00" end="10.00" id="1">
        <edge id="e_t" sampledSeconds="30.00" traveltime="15.29" overlapTraveltime="15.70" density="16.09" laneDensity="5.36" occupancy="2.68" waitingTime="0.00" timeLoss="1.68" speed="12.19" speedRelative="0.88" departed="6" arrived="0" entered="0" left="0" laneChangedFrom="0" laneChangedTo="0"/>
        <edge id="n_t" sampledSeconds="27.00" traveltime="13.08" overlapTraveltime="13.43" density="14.48" laneDensity="4.83" occupancy="2.41" waitingTime="0.00" timeLoss="0.99" speed="14.25" speedRelative="1.03" departed="3" arrived="0" entered="0" left="0" laneChangedFrom="0" laneChangedTo="0"/>
        <edge id="s_t" sampledSeconds="27.00" traveltime="13.88" overlapTraveltime="14.25" density="14.48" laneDensity="4.83" occupancy="2.41" waitingTime="0.00" timeLoss="1.36" speed="13.43" speedRelative="0.97" departed="3" arrived="0" entered="0" left="0" laneChangedFrom="0" laneChangedTo="0"/>
        <edge id="t_e" sampledSeconds="0.00" departed="0" arrived="0" entered="0" left="0" laneChangedFrom="0" laneChangedTo="0"/>
        <edge id="t_n" sampledSeconds="0.00" departed="0" arrived="0" entered="0" left="0" laneChangedFrom="0" laneChangedTo="0"/>
        <edge id="t_s" sampledSeconds="0.00" departed="0" arrived="0" entered="0" left="0" laneChangedFrom="0" laneChangedTo="0"/>
        <edge id="t_w" sampledSeconds="0.00" departed="0" arrived="0" entered="0" left="0" laneChangedFrom="0" laneChangedTo="0"/>
        <edge id="w_t" sampledSeconds="30.00" traveltime="12.71" overlapTraveltime="13.05" density="16.09" laneDensity="5.36" occupancy="2.68" waitingTime="0.00" timeLoss="1.15" speed="14.66" speedRelative="1.06" departed="6" arrived="0" entered="0" left="0" laneChangedFrom="0" laneChangedTo="0"/>
    </interval>
    <interval begin="10.00" end="20.00" id="1">
        <edge id="e_t" sampledSeconds="68.09" traveltime="15.71" overlapTraveltime="16.50" density="36.53" laneDensity="12.18" occupancy="5.99" waitingTime="0.00" timeLoss="8.97" speed="11.60" speedRelative="0.84" departed="3" arrived="0" entered="0" left="2" laneChangedFrom="0" laneChangedTo="0"/>
        <edge id="n_t" sampledSeconds="25.23" traveltime="29.00" overlapTraveltime="29.79" density="13.53" laneDensity="4.51" occupancy="2.22" waitingTime="6.00" timeLoss="13.71" speed="6.42" speedRelative="0.46" departed="0" arrived="0" entered="0" left="1" laneChangedFrom="0" laneChangedTo="0"/>
        <edge id="s_t" sampledSeconds="23.71" traveltime="23.95" overlapTraveltime="24.62" density="12.72" laneDensity="4.24" occupancy="2.09" waitingTime="5.00" timeLoss="9.89" speed="7.77" speedRelative="0.56" departed="0" arrived="0" entered="0" left="1" laneChangedFrom="0" laneChangedTo="0"/>
        <edge id="t_e" sampledSeconds="10.90" traveltime="14.13" overlapTraveltime="14.51" density="5.85" laneDensity="1.95" occupancy="0.93" waitingTime="0.00" timeLoss="1.81" speed="13.19" speedRelative="0.95" departed="0" arrived="0" entered="2" left="0" laneChangedFrom="0" laneChangedTo="0"/>
        <edge id="t_n" sampledSeconds="2.26" traveltime="24.48" overlapTraveltime="25.13" density="1.21" laneDensity="0.40" occupancy="0.17" waitingTime="0.00" timeLoss="0.95" speed="7.62" speedRelative="0.55" departed="0" arrived="0" entered="1" left="0" laneChangedFrom="0" laneChangedTo="0"/>
        <edge id="t_s" sampledSeconds="2.24" traveltime="21.08" overlapTraveltime="21.64" density="1.20" laneDensity="0.40" occupancy="0.17" waitingTime="0.00" timeLoss="0.73" speed="8.84" speedRelative="0.64" departed="0" arrived="0" entered="1" left="0" laneChangedFrom="0" laneChangedTo="0"/>
        <edge id="t_w" sampledSeconds="4.11" traveltime="17.85" overlapTraveltime="18.33" density="2.21" laneDensity="0.74" occupancy="0.34" waitingTime="0.00" timeLoss="1.16" speed="10.44" speedRelative="0.75" departed="0" arrived="0" entered="1" left="0" laneChangedFrom="0" laneChangedTo="0"/>
        <edge id="w_t" sampledSeconds="61.57" traveltime="16.94" overlapTraveltime="17.76" density="33.03" laneDensity="11.01" occupancy="5.40" waitingTime="3.00" timeLoss="10.80" speed="10.77" speedRelative="0.78" departed="3" arrived="0" entered="0" left="3" laneChangedFrom="0" laneChangedTo="0"/>
    </interval>
    <interval begin="20.00" end="30.00" id="1">
        <edge id="e_t" sampledSeconds="79.05" traveltime="19.16" overlapTraveltime="19.93" density="42.41" laneDensity="14.14" occupancy="6.93" waitingTime="13.00" timeLoss="24.70" speed="9.61" speedRelative="0.69" departed="6" arrived="0" entered="0" left="4" laneChangedFrom="0" laneChangedTo="0"/>
        <edge id="n_t" sampledSeconds="29.00" traveltime="42.35" overlapTraveltime="43.48" density="15.56" laneDensity="5.19" occupancy="2.59" waitingTime="20.00" timeLoss="20.34" speed="4.40" speedRelative="0.32" departed="3" arrived="0" entered="0" left="0" laneChangedFrom="0" laneChangedTo="0"/>
        <edge id="s_t" sampledSeconds="29.00" traveltime="43.67" overlapTraveltime="44.84" density="15.56" laneDensity="5.19" occupancy="2.59" waitingTime="20.00" timeLoss="20.51" speed="4.27" speedRelative="0.31" departed="3" arrived="0" entered="0" left="0" laneChangedFrom="0" laneChangedTo="0"/>
        <edge id="t_e" sampledSeconds="15.66" traveltime="12.23" overlapTraveltime="12.55" density="8.40" laneDensity="2.80" occupancy="1.37" waitingTime="0.00" timeLoss="0.59" speed="15.26" speedRelative="1.10" departed="0" arrived="2" entered="0" left="0" laneChangedFrom="0" laneChangedTo="0"/>
        <edge id="t_n" sampledSeconds="26.73" traveltime="14.09" overlapTraveltime="14.47" density="14.34" laneDensity="4.78" occupancy="2.32" waitingTime="0.00" timeLoss="2.73" speed="13.23" speedRelative="0.95" departed="0" arrived="0" entered="3" left="0" laneChangedFrom="0" laneChangedTo="0"/>
        <edge id="t_s" sampledSeconds="22.27" traveltime="14.81" overlapTraveltime="15.21" density="11.95" laneDensity="3.98" occupancy="1.94" waitingTime="0.00" timeLoss="2.11" speed="12.59" speedRelative="0.91" departed="0" arrived="0" entered="2" left="0" laneChangedFrom="0" laneChangedTo="0"/>
        <edge id="t_w" sampledSeconds="10.00" traveltime="13.58" overlapTraveltime="13.94" density="5.36" laneDensity="1.79" occupancy="0.89" waitingTime="0.00" timeLoss="0.57" speed="13.73" speedRelative="0.99" departed="0" arrived="0" entered="0" left="0" laneChangedFrom="0" laneChangedTo="0"/>
        <edge id="w_t" sampledSeconds="74.90" traveltime="17.94" overlapTraveltime="18.63" density="40.18" laneDensity="13.39" occupancy="6.62" waitingTime="5.00" timeLoss="13.68" speed="10.28" speedRelative="0.74" departed="6" arrived="0" entered="0" left="2" laneChangedFrom="0" laneChangedTo="0"/>
    </interval>
    <interval begin="30.00" end="40.00" id="1">
        <edge id="e_t" sampledSeconds="98.04" traveltime="24.82" overlapTraveltime="25.58" density="52.60" laneDensity="17.53" occupancy="8.72" waitingTime="35.00" timeLoss="42.53" speed="7.48" speedRelative="0.54" departed="3" arrived="0" entered="0" left="1" laneChangedFrom="0" laneChangedTo="0"/>
        <edge id="n_t" sampledSeconds="48.86" traveltime="22.98" overlapTraveltime="24.09" density="26.21" laneDensity="8.74" occupancy="4.28" waitingTime="17.00" timeLoss="21.87" speed="7.94" speedRelative="0.57" departed="0" arrived="0" entered="0" left="2" laneChangedFrom="0" laneChangedTo="0"/>
        <edge id="s_t" sampledSeconds="48.97" traveltime="22.35" overlapTraveltime="23.35" density="26.27" laneDensity="8.76" occupancy="4.32" waitingTime="17.00" timeLoss="20.83" speed="8.20" speedRelative="0.59" departed="0" arrived="0" entered="0" left="2" laneChangedFrom="0" laneChangedTo="0"/>
        <edge id="t_e" sampledSeconds="0.00" departed="0" arrived="0" entered="0" left="0" laneChangedFrom="0" laneChangedTo="0"/>
        <edge id="t_n" sampledSeconds="41.56" traveltime="14.40" overlapTraveltime="14.75" density="22.30" laneDensity="7.43" occupancy="3.60" waitingTime="0.00" timeLoss="3.50" speed="12.98" speedRelative="0.93" departed="0" arrived="3" entered="3" left="0" laneChangedFrom="0" laneChangedTo="0"/>
        <edge id="t_s" sampledSeconds="41.12" traveltime="15.23" overlapTraveltime="15.61" density="22.06" laneDensity="7.35" occupancy="3.50" waitingTime="0.00" timeLoss="4.43" speed="12.26" speedRelative="0.88" departed="0" arrived="2" entered="4" left="0" laneChangedFrom="0" laneChangedTo="0"/>
        <edge id="t_w" sampledSeconds="0.78" traveltime="13.07" overlapTraveltime="13.43" density="0.42" laneDensity="0.14" occupancy="0.05" waitingTime="0.00" timeLoss="0.02" speed="14.26" speedRelative="1.03" departed="0" arrived="1" entered="0" left="0" laneChangedFrom="0" laneChangedTo="0"/>
        <edge id="w_t" sampledSeconds="97.36" traveltime="22.89" overlapTraveltime="23.73" density="52.23" laneDensity="17.41" occupancy="8.58" waitingTime="21.00" timeLoss="35.68" speed="8.07" speedRelative="0.58" departed="3" arrived="0" entered="0" left="3" laneChangedFrom="0" laneChangedTo="0"/>
    </interval>
    <interval begin="40.00" end="50.00" id="1">
        <edge id="e_t" sampledSeconds="119.39" traveltime="34.64" overlapTraveltime="35.53" density="64.05" laneDensity="21.35" occupancy="10.64" waitingTime="59.00" timeLoss="68.02" speed="5.39" speedRelative="0.39" departed="3" arrived="0" entered="0" left="1" laneChangedFrom="0" laneChangedTo="0"/>
        <edge id="n_t" sampledSeconds="21.45" traveltime="126.46" overlapTraveltime="115.31" density="11.51" laneDensity="3.84" occupancy="1.89" waitingTime="15.00" timeLoss="18.63" speed="1.66" speedRelative="0.12" departed="0" arrived="0" entered="0" left="1" laneChangedFrom="0" laneChangedTo="0"/>
        <edge id="s_t" sampledSeconds="22.36" traveltime="233.58" overlapTraveltime="163.34" density="11.99" laneDensity="4.00" occupancy="1.94" waitingTime="17.00" timeLoss="20.22" speed="1.17" speedRelative="0.08" departed="0" arrived="0" entered="0" left="1" laneChangedFrom="0" laneChangedTo="0"/>
        <edge id="t_e" sampledSeconds="8.67" traveltime="14.59" overlapTraveltime="14.98" density="4.65" laneDensity="1.55" occupancy="0.74" waitingTime="0.00" timeLoss="1.62" speed="12.78" speedRelative="0.92" departed="0" arrived="0" entered="1" left="0" laneChangedFrom="0" laneChangedTo="0"/>
        <edge id="t_n" sampledSeconds="46.39" traveltime="15.95" overlapTraveltime="16.34" density="24.89" laneDensity="8.30" occupancy="4.03" waitingTime="0.00" timeLoss="5.46" speed="11.71" speedRelative="0.84" departed="0" arrived="2" entered="3" left="0" laneChangedFrom="0" laneChangedTo="0"/>
        <edge id="t_s" sampledSeconds="51.87" traveltime="16.43" overlapTraveltime="16.82" density="27.83" laneDensity="9.28" occupancy="4.53" waitingTime="0.00" timeLoss="6.98" speed="11.38" speedRelative="0.82" departed="0" arrived="2" entered="3" left="0" laneChangedFrom="0" laneChangedTo="0"/>
        <edge id="t_w" sampledSeconds="9.55" traveltime="13.50" overlapTraveltime="13.86" density="5.12" laneDensity="1.71" occupancy="0.82" waitingTime="0.00" timeLoss="1.57" speed="13.81" speedRelative="0.99" departed="0" arrived="0" entered="1" left="0" laneChangedFrom="0" laneChangedTo="0"/>
        <edge id="w_t" sampledSeconds="109.87" traveltime="30.30" overlapTraveltime="31.12" density="58.94" laneDensity="19.65" occupancy="9.79" waitingTime="47.00" timeLoss="56.92" speed="6.15" speedRelative="0.44" departed="3" arrived="0" entered="0" left="1" laneChangedFrom="0" laneChangedTo="0"/>
    </interval>
    <interval begin="50.00" end="60.00" id="1">
        <edge id="e_t" sampledSeconds="141.97" traveltime="37.20" overlapTraveltime="38.22" density="76.16" laneDensity="25.39" occupancy="12.52" waitingTime="64.00" timeLoss="84.28" speed="5.01" speedRelative="0.36" departed="6" arrived="0" entered="0" left="4" laneChangedFrom="0" laneChangedTo="0"/>
        <edge id="n_t" sampledSeconds="41.00" traveltime="31.02" overlapTraveltime="31.85" density="22.00" laneDensity="7.33" occupancy="3.67" waitingTime="20.00" timeLoss="21.33" speed="6.01" speedRelative="0.43" departed="3" arrived="0" entered="0" left="0" laneChangedFrom="0" laneChangedTo="0"/>
        <edge id="s_t" sampledSeconds="41.00" traveltime="25.62" overlapTraveltime="26.31" density="22.00" laneDensity="7.33" occupancy="3.67" waitingTime="20.00" timeLoss="20.75" speed="7.28" speedRelative="0.52" departed="3" arrived="0" entered="0" left="0" laneChangedFrom="0" laneChangedTo="0"/>
        <edge id="t_e" sampledSeconds="5.00" traveltime="12.34" overlapTraveltime="12.67" density="2.68" laneDensity="0.89" occupancy="0.45" waitingTime="0.00" timeLoss="0.19" speed="15.10" speedRelative="1.09" departed="0" arrived="1" entered="0" left="0" laneChangedFrom="0" laneChangedTo="0"/>
        <edge id="t_n" sampledSeconds="45.91" traveltime="15.43" overlapTraveltime="15.82" density="24.63" laneDensity="8.21" occupancy="3.95" waitingTime="0.00" timeLoss="4.76" speed="12.10" speedRelative="0.87" departed="0" arrived="5" entered="3" left="0" laneChangedFrom="0" laneChangedTo="0"/>
        <edge id="t_s" sampledSeconds="46.90" traveltime="15.72" overlapTraveltime="16.12" density="25.16" laneDensity="8.39" occupancy="4.04" waitingTime="0.00" timeLoss="6.17" speed="11.87" speedRelative="0.85" departed="0" arrived="5" entered="3" left="0" laneChangedFrom="1" laneChangedTo="1"/>
        <edge id="t_w" sampledSeconds="3.78" traveltime="11.89" overlapTraveltime="12.16" density="2.03" laneDensity="0.68" occupancy="0.32" waitingTime="0.00" timeLoss="0.18" speed="15.74" speedRelative="1.13" departed="0" arrived="1" entered="0" left="0" laneChangedFrom="0" laneChangedTo="0"/>
        <edge id="w_t" sampledSeconds="133.67" traveltime="32.06" overlapTraveltime="33.07" density="71.71" laneDensity="23.90" occupancy="11.78" waitingTime="55.00" timeLoss="75.26" speed="5.79" speedRelative="0.42" departed="6" arrived="0" entered="0" left="4" laneChangedFrom="0" laneChangedTo="0"/>
    </interval>
    <interval begin="60.00" end="70.00" id="1">
        <edge id="e_t" sampledSeconds="144.40" traveltime="37.68" overlapTraveltime="38.56" density="77.47" laneDensity="25.82" occupancy="12.80" waitingTime="76.00" timeLoss="85.67" speed="4.96" speedRelative="0.36" departed="3" arrived="0" entered="0" left="3" laneChangedFrom="0" laneChangedTo="0"/>
        <edge id="n_t" sampledSeconds="49.10" traveltime="32.43" overlapTraveltime="33.33" density="26.34" laneDensity="8.78" occupancy="4.35" waitingTime="21.00" timeLoss="25.82" speed="5.74" speedRelative="0.41" departed="0" arrived="0" entered="0" left="1" laneChangedFrom="0" laneChangedTo="0"/>
        <edge id="s_t" sampledSeconds="48.00" traveltime="38.43" overlapTraveltime="39.33" density="25.75" laneDensity="8.58" occupancy="4.25" waitingTime="25.00" timeLoss="31.54" speed="4.87" speedRelative="0.35" departed="0" arrived="0" entered="0" left="1" laneChangedFrom="0" laneChangedTo="0"/>
        <edge id="t_e" sampledSeconds="1.37" traveltime="23.02" overlapTraveltime="23.64" density="0.73" laneDensity="0.24" occupancy="0.09" waitingTime="0.00" timeLoss="0.59" speed="8.10" speedRelative="0.58" departed="0" arrived="0" entered="1" left="0" laneChangedFrom="0" laneChangedTo="0"/>
        <edge id="t_n" sampledSeconds="56.41" traveltime="16.23" overlapTraveltime="16.67" density="30.26" laneDensity="10.09" occupancy="4.91" waitingTime="0.00" timeLoss="8.91" speed="11.48" speedRelative="0.83" departed="0" arrived="0" entered="5" left="0" laneChangedFrom="0" laneChangedTo="0"/>
        <edge id="t_s" sampledSeconds="52.19" traveltime="16.53" overlapTraveltime="16.96" density="28.00" laneDensity="9.33" occupancy="4.53" waitingTime="0.00" timeLoss="4.79" speed="11.29" speedRelative="0.81" departed="0" arrived="1" entered="4" left="0" laneChangedFrom="0" laneChangedTo="0"/>
        <edge id="t_w" sampledSeconds="0.11" traveltime="36.47" overlapTraveltime="37.45" density="0.06" laneDensity="0.02" occupancy="0.00" waitingTime="0.00" timeLoss="0.07" speed="5.11" speedRelative="0.37" departed="0" arrived="0" entered="1" left="0" laneChangedFrom="0" laneChangedTo="0"/>
        <edge id="w_t" sampledSeconds="128.63" traveltime="31.66" overlapTraveltime="32.41" density="69.01" laneDensity="23.00" occupancy="11.36" waitingTime="65.00" timeLoss="74.00" speed="5.91" speedRelative="0.43" departed="3" arrived="0" entered="0" left="4" laneChangedFrom="0" laneChangedTo="0"/>
    </interval>
    <interval begin="70.00" end="80.00" id="1">
        <edge id="e_t" sampledSeconds="157.60" traveltime="41.20" overlapTraveltime="42.10" density="84.55" laneDensity="28.18" occupancy="13.98" waitingTime="91.00" timeLoss="101.91" speed="4.55" speedRelative="0.33" departed="3" arrived="0" entered="0" left="4" laneChangedFrom="0" laneChangedTo="0"/>
        <edge id="n_t" sampledSeconds="43.00" traveltime="177.62" overlapTraveltime="182.39" density="23.07" laneDensity="7.69" occupancy="3.84" waitingTime="37.00" timeLoss="39.80" speed="1.05" speedRelative="0.08" departed="3" arrived="0" entered="0" left="0" laneChangedFrom="0" laneChangedTo="0"/>
        <edge id="s_t" sampledSeconds="43.00" traveltime="221.62" overlapTraveltime="227.57" density="23.07" laneDensity="7.69" occupancy="3.84" waitingTime="40.00" timeLoss="40.17" speed="0.84" speedRelative="0.06" departed="3" arrived="0" entered="0" left="0" laneChangedFrom="0" laneChangedTo="0"/>
        <edge id="t_e" sampledSeconds="10.00" traveltime="14.38" overlapTraveltime="14.76" density="5.36" laneDensity="1.79" occupancy="0.89" waitingTime="0.00" timeLoss="0.85" speed="12.97" speedRelative="0.93" departed="0" arrived="0" entered="0" left="0" laneChangedFrom="0" laneChangedTo="0"/>
        <edge id="t_n" sampledSeconds="63.91" traveltime="16.51" overlapTraveltime="16.91" density="34.28" laneDensity="11.43" occupancy="5.60" waitingTime="0.00" timeLoss="12.04" speed="11.32" speedRelative="0.82" departed="0" arrived="5" entered="2" left="0" laneChangedFrom="0" laneChangedTo="0"/>
        <edge id="t_s" sampledSeconds="62.95" traveltime="17.24" overlapTraveltime="17.69" density="33.77" laneDensity="11.26" occupancy="5.46" waitingTime="0.00" timeLoss="6.91" speed="10.82" speedRelative="0.78" departed="0" arrived="4" entered="4" left="0" laneChangedFrom="1" laneChangedTo="1"/>
        <edge id="t_w" sampledSeconds="10.00" traveltime="16.53" overlapTraveltime="16.97" density="5.36" laneDensity="1.79" occupancy="0.87" waitingTime="0.00" timeLoss="1.25" speed="11.28" speedRelative="0.81" departed="0" arrived="0" entered="0" left="0" laneChangedFrom="0" laneChangedTo="0"/>
        <edge id="w_t" sampledSeconds="139.29" traveltime="38.63" overlapTraveltime="39.34" density="74.73" laneDensity="24.91" occupancy="12.32" waitingTime="81.00" timeLoss="92.73" speed="4.87" speedRelative="0.35" departed="3" arrived="0" entered="0" left="4" laneChangedFrom="0" laneChangedTo="0"/>
    </interval>
    <interval begin="80.00" end="90.00" id="1">
        <edge id="e_t" sampledSeconds="163.63" traveltime="45.84" overlapTraveltime="46.47" density="87.78" laneDensity="29.26" occupancy="14.51" waitingTime="107.00" timeLoss="113.93" speed="4.12" speedRelative="0.30" departed="6" arrived="0" entered="0" left="3" laneChangedFrom="0" laneChangedTo="0"/>
        <edge id="n_t" sampledSeconds="70.00" traveltime="31.96" overlapTraveltime="32.82" density="37.55" laneDensity="12.52" occupancy="6.26" waitingTime="40.00" timeLoss="41.61" speed="5.83" speedRelative="0.42" departed="0" arrived="0" entered="0" left="0" laneChangedFrom="0" laneChangedTo="0"/>
        <edge id="s_t" sampledSeconds="70.00" traveltime="36.02" overlapTraveltime="36.99" density="37.55" laneDensity="12.52" occupancy="6.26" waitingTime="40.00" timeLoss="41.67" speed="5.17" speedRelative="0.37" departed="0" arrived="0" entered="0" left="0" laneChangedFrom="0" laneChangedTo="0"/>
        <edge id="t_e" sampledSeconds="3.71" traveltime="13.65" overlapTraveltime="14.02" density="1.99" laneDensity="0.66" occupancy="0.32" waitingTime="0.00" timeLoss="0.13" speed="13.65" speedRelative="0.98" departed="0" arrived="1" entered="0" left="0" laneChangedFrom="0" laneChangedTo="0"/>
        <edge id="t_n" sampledSeconds="46.41" traveltime="14.56" overlapTraveltime="14.95" density="24.90" laneDensity="8.30" occupancy="4.05" waitingTime="0.00" timeLoss="4.34" speed="12.81" speedRelative="0.92" departed="0" arrived="3" entered="2" left="0" laneChangedFrom="0" laneChangedTo="0"/>
        <edge id="t_s" sampledSeconds="54.81" traveltime="17.04" overlapTraveltime="17.49" density="29.41" laneDensity="9.80" occupancy="4.77" waitingTime="0.00" timeLoss="8.30" speed="10.94" speedRelative="0.79" departed="0" arrived="3" entered="3" left="0" laneChangedFrom="1" laneChangedTo="1"/>
        <edge id="t_w" sampledSeconds="6.44" traveltime="15.36" overlapTraveltime="15.78" density="3.45" laneDensity="1.15" occupancy="0.56" waitingTime="0.00" timeLoss="0.38" speed="12.13" speedRelative="0.87" departed="0" arrived="1" entered="0" left="0" laneChangedFrom="0" laneChangedTo="0"/>
        <edge id="w_t" sampledSeconds="150.06" traveltime="42.90" overlapTraveltime="43.80" density="80.51" laneDensity="26.84" occupancy="13.35" waitingTime="97.00" timeLoss="104.79" speed="4.37" speedRelative="0.31" departed="6" arrived="0" entered="0" left="2" laneChangedFrom="0" laneChangedTo="0"/>
    </interval>
    <interval begin="90.00" end="100.00" id="1">
        <edge id="e_t" sampledSeconds="175.41" traveltime="53.06" overlapTraveltime="54.04" density="94.11" laneDensity="31.37" occupancy="15.61" waitingTime="124.00" timeLoss="130.25" speed="3.54" speedRelative="0.25" departed="3" arrived="0" entered="0" left="2" laneChangedFrom="0" laneChangedTo="0"/>
        <edge id="n_t" sampledSeconds="64.15" traveltime="189.92" overlapTraveltime="182.87" density="34.42" laneDensity="11.47" occupancy="5.70" waitingTime="55.00" timeLoss="58.83" speed="1.05" speedRelative="0.08" departed="0" arrived="0" entered="0" left="1" laneChangedFrom="0" laneChangedTo="0"/>
        <edge id="s_t" sampledSeconds="65.48" traveltime="106.01" overlapTraveltime="105.77" density="35.13" laneDensity="11.71" occupancy="5.81" waitingTime="52.00" timeLoss="55.17" speed="1.81" speedRelative="0.13" departed="0" arrived="0" entered="0" left="1" laneChangedFrom="0" laneChangedTo="0"/>
        <edge id="t_e" sampledSeconds="3.75" traveltime="21.44" overlapTraveltime="22.01" density="2.01" laneDensity="0.67" occupancy="0.30" waitingTime="0.00" timeLoss="1.21" speed="8.70" speedRelative="0.63" departed="0" arrived="0" entered="1" left="0" laneChangedFrom="0" laneChangedTo="0"/>
        <edge id="t_n" sampledSeconds="44.53" traveltime="15.67" overlapTraveltime="16.03" density="23.89" laneDensity="7.96" occupancy="3.82" waitingTime="0.00" timeLoss="5.33" speed="11.94" speedRelative="0.86" departed="0" arrived="4" entered="4" left="0" laneChangedFrom="0" laneChangedTo="0"/>
        <edge id="t_s" sampledSeconds="59.43" traveltime="15.50" overlapTraveltime="15.90" density="31.88" laneDensity="10.63" occupancy="5.22" waitingTime="0.00" timeLoss="6.15" speed="12.04" speedRelative="0.87" departed="0" arrived="4" entered="2" left="0" laneChangedFrom="1" laneChangedTo="1"/>
        <edge id="t_w" sampledSeconds="5.08" traveltime="16.95" overlapTraveltime="17.40" density="2.72" laneDensity="0.91" occupancy="0.42" waitingTime="0.00" timeLoss="0.96" speed="11.00" speedRelative="0.79" departed="0" arrived="0" entered="1" left="0" laneChangedFrom="0" laneChangedTo="0"/>
        <edge id="w_t" sampledSeconds="164.15" traveltime="47.73" overlapTraveltime="48.60" density="88.06" laneDensity="29.35" occupancy="14.63" waitingTime="111.00" timeLoss="118.72" speed="3.94" speedRelative="0.28" departed="3" arrived="0" entered="0" left="2" laneChangedFrom="0" laneChangedTo="0"/>
    </interval>
    <interval begin="100.00" end="110.00" id="1">
        <edge id="e_t" sampledSeconds="193.58" traveltime="54.06" overlapTraveltime="54.73" density="103.85" laneDensity="34.62" occupancy="17.17" waitingTime="134.00" timeLoss="145.76" speed="3.50" speedRelative="0.25" departed="6" arrived="0" entered="0" left="4" laneChangedFrom="0" laneChangedTo="0"/>
        <edge id="n_t" sampledSeconds="78.00" traveltime="57.90" overlapTraveltime="59.45" density="41.85" laneDensity="13.95" occupancy="6.97" waitingTime="60.00" timeLoss="60.97" speed="3.22" speedRelative="0.23" departed="3" arrived="0" entered="0" left="0" laneChangedFrom="0" laneChangedTo="0"/>
        <edge id="s_t" sampledSeconds="78.00" traveltime="53.10" overlapTraveltime="54.52" density="41.85" laneDensity="13.95" occupancy="6.97" waitingTime="60.00" timeLoss="60.74" speed="3.51" speedRelative="0.25" departed="3" arrived="0" entered="0" left="0" laneChangedFrom="0" laneChangedTo="0"/>
        <edge id="t_e" sampledSeconds="10.00" traveltime="15.47" overlapTraveltime="15.88" density="5.36" laneDensity="1.79" occupancy="0.89" waitingTime="0.00" timeLoss="0.61" speed="12.05" speedRelative="0.87" departed="0" arrived="0" entered="0" left="0" laneChangedFrom="0" laneChangedTo="0"/>
        <edge id="t_n" sampledSeconds="48.04" traveltime="13.97" overlapTraveltime="14.36" density="25.77" laneDensity="8.59" occupancy="4.18" waitingTime="0.00" timeLoss="4.08" speed="13.33" speedRelative="0.96" departed="0" arrived="4" entered="3" left="0" laneChangedFrom="0" laneChangedTo="0"/>
        <edge id="t_s" sampledSeconds="35.54" traveltime="14.55" overlapTraveltime="14.91" density="19.07" laneDensity="6.36" occupancy="3.02" waitingTime="0.00" timeLoss="3.65" speed="12.84" speedRelative="0.92" departed="0" arrived="4" entered="3" left="0" laneChangedFrom="0" laneChangedTo="0"/>
        <edge id="t_w" sampledSeconds="10.00" traveltime="14.55" overlapTraveltime="14.94" density="5.36" laneDensity="1.79" occupancy="0.89" waitingTime="0.00" timeLoss="0.55" speed="12.81" speedRelative="0.92" departed="0" arrived="0" entered="0" left="0" laneChangedFrom="0" laneChangedTo="0"/>
        <edge id="w_t" sampledSeconds="181.74" traveltime="52.43" overlapTraveltime="53.26" density="97.50" laneDensity="32.50" occupancy="16.15" waitingTime="125.00" timeLoss="134.45" speed="3.59" speedRelative="0.26" departed="6" arrived="0" entered="0" left="3" laneChangedFrom="0" laneChangedTo="0"/>
    </interval>
    <interval begin="110.00" end="120.00" id="1">
        <edge id="e_t" sampledSeconds="200.68" traveltime="68.13" overlapTraveltime="69.15" density="107.66" laneDensity="35.89" occupancy="17.89" waitingTime="152.00" timeLoss="159.34" speed="2.77" speedRelative="0.20" departed="3" arrived="0" entered="0" left="2" laneChangedFrom="0" laneChangedTo="0"/>
        <edge id="n_t" sampledSeconds="88.64" traveltime="66.60" overlapTraveltime="67.66" density="47.56" laneDensity="15.85" occupancy="7.89" waitingTime="65.00" timeLoss="70.67" speed="2.83" speedRelative="0.20" departed="0" arrived="0" entered="0" left="1" laneChangedFrom="0" laneChangedTo="0"/>
        <edge id="s_t" sampledSeconds="86.79" traveltime="71.95" overlapTraveltime="72.84" density="46.56" laneDensity="15.52" occupancy="7.73" waitingTime="64.00" timeLoss="71.96" speed="2.63" speedRelative="0.19" departed="0" arrived="0" entered="0" left="1" laneChangedFrom="0" laneChangedTo="0"/>
        <edge id="t_e" sampledSeconds="5.67" traveltime="16.73" overlapTraveltime="17.05" density="3.04" laneDensity="1.01" occupancy="0.46" waitingTime="0.00" timeLoss="1.15" speed="11.22" speedRelative="0.81" departed="0" arrived="1" entered="1" left="0" laneChangedFrom="0" laneChangedTo="0"/>
        <edge id="t_n" sampledSeconds="36.79" traveltime="13.91" overlapTraveltime="14.24" density="19.74" laneDensity="6.58" occupancy="3.19" waitingTime="0.00" timeLoss="4.01" speed="13.44" speedRelative="0.97" departed="0" arrived="2" entered="3" left="0" laneChangedFrom="0" laneChangedTo="0"/>
        <edge id="t_s" sampledSeconds="42.27" traveltime="15.12" overlapTraveltime="15.52" density="22.68" laneDensity="7.56" occupancy="3.69" waitingTime="0.00" timeLoss="4.02" speed="12.34" speedRelative="0.89" departed="0" arrived="1" entered="3" left="0" laneChangedFrom="0" laneChangedTo="0"/>
        <edge id="t_w" sampledSeconds="1.27" traveltime="25.79" overlapTraveltime="21.53" density="0.68" laneDensity="0.23" occupancy="0.06" waitingTime="0.00" timeLoss="0.46" speed="8.89" speedRelative="0.64" departed="0" arrived="1" entered="1" left="0" laneChangedFrom="0" laneChangedTo="0"/>
        <edge id="w_t" sampledSeconds="194.03" traveltime="58.66" overlapTraveltime="59.51" density="104.09" laneDensity="34.70" occupancy="17.24" waitingTime="144.00" timeLoss="150.23" speed="3.22" speedRelative="0.23" departed="3" arrived="0" entered="0" left="3" laneChangedFrom="0" laneChangedTo="0"/>
    </interval>
    <interval begin="120.00" end="130.00" id="1">