<?xml version="1.0" encoding="UTF-8"?>

<!-- generated on 2024-05-20 09:22:06 by Eclipse SUMO libsumo Version 1.19.0
<configuration xmlns:xsi="http://www.w3.org/2001/XMLSchema-instance" xsi:noNamespaceSchemaLocation="http://sumo.dlr.de/xsd/libsumoConfiguration.xsd">

    <input>
        <net-file value="nets/syc/1x1/syc_4phases.net.xml"/>
        <route-files value="nets/syc/1x1/syc.rou.xml"/>
        <additional-files value="nets/syc/1x1/1x1_outputs.add.xml"/>
    </input>

    <output>
        <fcd-output value="nets/syc/1x1/output_1x1/fcd_output.xml"/>
        <tripinfo-output value="nets/syc/1x1/output_1x1/tripinfo.out.xml"/>
    </output>

    <time>
        <begin value="0"/>
        <end value="1000"/>
    </time>

    <processing>
        <time-to-teleport value="-1"/>
        <waiting-time-memory value="1000"/>
        <max-depart-delay value="-1"/>
    </processing>

    <random_number>
        <seed value="0"/>
    </random_number>

</configuration>
-->

<tripinfos xmlns:xsi="http://www.w3.org/2001/XMLSchema-instance" xsi:noNamespaceSchemaLocation="http://sumo.dlr.de/xsd/tripinfo_file.xsd">
    <tripinfo id="flow_se.0" depart="0.00" departLane="s_t_0" departPos="5.10" departSpeed="16.05" departDelay="0.00" arrival="27.00" arrivalLane="t_e_0" arrivalPos="186.40" arrivalSpeed="15.66" duration="27.00" routeLength="376.73" waitingTime="0.00" waitingCount="0" stopTime="0.00" timeLoss="2.69" rerouteNo="0" devices="tripinfo_flow_se.0 fcd_flow_se.0" vType="DEFAULT_VEHTYPE" speedFactor="1.16" vaporized=""/>
    <tripinfo id="flow_we.0" depart="0.00" departLane="w_t_1" departPos="5.10" departSpeed="15.63" departDelay="0.00" arrival="27.00" arrivalLane="t_e_1" arrivalPos="186.40" arrivalSpeed="15.28" duration="27.00" routeLength="394.90" waitingTime="0.00" waitingCount="0" stopTime="0.00" timeLoss="1.09" rerouteNo="0" devices="tripinfo_flow_we.0 fcd_flow_we.0" vType="DEFAULT_VEHTYPE" speedFactor="1.13" vaporized=""/>
    <tripinfo id="flow_nw.0" depart="0.00" departLane="n_t_0" departPos="5.10" departSpeed="14.56" departDelay="0.00" arrival="30.00" arrivalLane="t_w_0" arrivalPos="186.40" arrivalSpeed="14.26" duration="30.00" routeLength="376.73" waitingTime="0.00" waitingCount="0" stopTime="0.00" timeLoss="3.08" rerouteNo="0" devices="tripinfo_flow_nw.0 fcd_flow_nw.0" vType="DEFAULT_VEHTYPE" speedFactor="1.05" vaporized=""/>
    <tripinfo id="flow_en.0" depart="0.00" departLane="e_t_0" departPos="5.10" departSpeed="13.13" departDelay="0.00" arrival="33.00" arrivalLane="t_n_0" arrivalPos="186.40" arrivalSpeed="12.21" duration="33.00" routeLength="376.73" waitingTime="0.00" waitingCount="0" stopTime="0.00" timeLoss="3.53" rerouteNo="0" devices="tripinfo_flow_en.0 fcd_flow_en.0" vType="DEFAULT_VEHTYPE" speedFactor="0.95" vaporized=""/>
    <tripinfo id="flow_wn.0" depart="0.00" departLane="w_t_2" departPos="5.10" departSpeed="17.61" departDelay="0.00" arrival="33.00" arrivalLane="t_n_2" arrivalPos="186.40" arrivalSpeed="17.36" duration="33.00" routeLength="392.21" waitingTime="3.00" waitingCount="1" stopTime="0.00" timeLoss="9.50" rerouteNo="0" devices="tripinfo_flow_wn.0 fcd_flow_wn.0" vType="DEFAULT_VEHTYPE" speedFactor="1.27" vaporized=""/>
    <tripinfo id="flow_ws.0" depart="0.00" departLane="w_t_0" departPos="5.10" departSpeed="13.13" departDelay="0.00" arrival="33.00" arrivalLane="t_s_0" arrivalPos="186.40" arrivalSpeed="12.16" duration="33.00" routeLength="376.73" waitingTime="0.00" waitingCount="0" stopTime="0.00" timeLoss="3.46" rerouteNo="0" devices="tripinfo_flow_ws.0 fcd_flow_ws.0" vType="DEFAULT_VEHTYPE" speedFactor="0.95" vaporized=""/>
    <tripinfo id="flow_es.0" depart="0.00" departLane="e_t_2" departPos="5.10" departSpeed="14.64" departDelay="0.00" arrival="35.00" arrivalLane="t_s_2" arrivalPos="186.40" arrivalSpeed="14.18" duration="35.00" routeLength="392.21" waitingTime="0.00" waitingCount="0" stopTime="0.00" timeLoss="7.20" rerouteNo="0" devices="tripinfo_flow_es.0 fcd_flow_es.0" vType="DEFAULT_VEHTYPE" speedFactor="1.05" vaporized=""/>
    <tripinfo id="flow_wn.1" depart="8.00" departLane="w_t_2" departPos="5.10" departSpeed="14.46" departDelay="0.80" arrival="39.00" arrivalLane="t_n_2" arrivalPos="186.40" arrivalSpeed="14.11" duration="31.00" routeLength="392.21" waitingTime="0.00" waitingCount="0" stopTime="0.00" timeLoss="2.94" rerouteNo="0" devices="tripinfo_flow_wn.1 fcd_flow_wn.1" vType="DEFAULT_VEHTYPE" speedFactor="1.04" vaporized=""/>
    <tripinfo id="flow_es.1" depart="8.00" departLane="e_t_2" departPos="5.10" departSpeed="14.41" departDelay="0.80" arrival="40.00" arrivalLane="t_s_2" arrivalPos="186.40" arrivalSpeed="13.32" duration="32.00" routeLength="392.21" waitingTime="0.00" waitingCount="0" stopTime="0.00" timeLoss="3.42" rerouteNo="0" devices="tripinfo_flow_es.1 fcd_flow_es.1" vType="DEFAULT_VEHTYPE" speedFactor="1.04" vaporized=""/>
    <tripinfo id="flow_en.1" depart="8.00" departLane="e_t_0" departPos="5.10" departSpeed="12.94" departDelay="0.80" arrival="41.00" arrivalLane="t_n_0" arrivalPos="186.40" arrivalSpeed="12.55" duration="33.00" routeLength="376.73" waitingTime="0.00" waitingCount="0" stopTime="0.00" timeLoss="3.25" rerouteNo="0" devices="tripinfo_flow_en.1 fcd_flow_en.1" vType="DEFAULT_VEHTYPE" speedFactor="0.93" vaporized=""/>
    <tripinfo id="flow_es.2" depart="15.00" departLane="e_t_2" departPos="5.10" departSpeed="16.43" departDelay="0.60" arrival="42.00" arrivalLane="t_s_2" arrivalPos="186.40" arrivalSpeed="15.59" duration="27.00" routeLength="392.21" waitingTime="0.00" waitingCount="0" stopTime="0.00" timeLoss="2.50" rerouteNo="0" devices="tripinfo_flow_es.2 fcd_flow_es.2" vType="DEFAULT_VEHTYPE" speedFactor="1.18" vaporized=""/>
    <tripinfo id="flow_en.2" depart="15.00" departLane="e_t_0" departPos="5.10" departSpeed="15.38" departDelay="0.60" arrival="44.00" arrivalLane="t_n_0" arrivalPos="186.40" arrivalSpeed="14.94" duration="29.00" routeLength="376.73" waitingTime="0.00" waitingCount="0" stopTime="0.00" timeLoss="3.55" rerouteNo="0" devices="tripinfo_flow_en.2 fcd_flow_en.2" vType="DEFAULT_VEHTYPE" speedFactor="1.11" vaporized=""/>
    <tripinfo id="flow_ws.1" depart="8.00" departLane="w_t_0" departPos="5.10" departSpeed="10.06" departDelay="0.80" arrival="51.00" arrivalLane="t_s_0" arrivalPos="186.40" arrivalSpeed="8.95" duration="43.00" routeLength="376.73" waitingTime="0.00" waitingCount="0" stopTime="0.00" timeLoss="4.14" rerouteNo="0" devices="tripinfo_flow_ws.1 fcd_flow_ws.1" vType="DEFAULT_VEHTYPE" speedFactor="0.72" vaporized=""/>
    <tripinfo id="flow_wn.2" depart="15.00" departLane="w_t_2" departPos="5.10" departSpeed="12.30" departDelay="0.60" arrival="51.00" arrivalLane="t_n_2" arrivalPos="186.40" arrivalSpeed="11.76" duration="36.00" routeLength="392.21" waitingTime="0.00" waitingCount="0" stopTime="0.00" timeLoss="3.08" rerouteNo="0" devices="tripinfo_flow_wn.2 fcd_flow_wn.2" vType="DEFAULT_VEHTYPE" speedFactor="0.89" vaporized=""/>
    <tripinfo id="flow_nw.1" depart="26.00" departLane="n_t_0" departPos="5.10" departSpeed="16.53" departDelay="0.29" arrival="53.00" arrivalLane="t_w_0" arrivalPos="186.40" arrivalSpeed="16.44" duration="27.00" routeLength="376.73" waitingTime="0.00" waitingCount="0" stopTime="0.00" timeLoss="3.24" rerouteNo="0" devices="tripinfo_flow_nw.1 fcd_flow_nw.1" vType="DEFAULT_VEHTYPE" speedFactor="1.19" vaporized=""/>
    <tripinfo id="flow_se.1" depart="26.00" departLane="s_t_0" departPos="5.10" departSpeed="15.71" departDelay="0.29" arrival="54.00" arrivalLane="t_e_0" arrivalPos="186.40" arrivalSpeed="14.71" duration="28.00" routeLength="376.73" waitingTime="0.00" waitingCount="0" stopTime="0.00" timeLoss="3.11" rerouteNo="0" devices="tripinfo_flow_se.1 fcd_flow_se.1" vType="DEFAULT_VEHTYPE" speedFactor="1.13" vaporized=""/>
    <tripinfo id="flow_ns.0" depart="0.00" departLane="n_t_1" departPos="5.10" departSpeed="15.51" departDelay="0.00" arrival="55.00" arrivalLane="t_s_1" arrivalPos="186.40" arrivalSpeed="14.39" duration="55.00" routeLength="394.90" waitingTime="21.00" waitingCount="1" stopTime="0.00" timeLoss="28.66" rerouteNo="0" devices="tripinfo_flow_ns.0 fcd_flow_ns.0" vType="DEFAULT_VEHTYPE" speedFactor="1.12" vaporized=""/>
    <tripinfo id="flow_en.3" depart="22.00" departLane="e_t_0" departPos="5.10" departSpeed="13.07" departDelay="0.40" arrival="56.00" arrivalLane="t_n_0" arrivalPos="186.40" arrivalSpeed="12.63" duration="34.00" routeLength="376.73" waitingTime="0.00" waitingCount="0" stopTime="0.00" timeLoss="3.84" rerouteNo="0" devices="tripinfo_flow_en.3 fcd_flow_en.3" vType="DEFAULT_VEHTYPE" speedFactor="0.94" vaporized=""/>
    <tripinfo id="flow_ns.1" depart="26.00" departLane="n_t_1" departPos="5.10" departSpeed="16.00" departDelay="0.29" arrival="56.00" arrivalLane="t_s_1" arrivalPos="186.40" arrivalSpeed="14.87" duration="30.00" routeLength="394.90" waitingTime="0.00" waitingCount="0" stopTime="0.00" timeLoss="5.11" rerouteNo="0" devices="tripinfo_flow_ns.1 fcd_flow_ns.1" vType="DEFAULT_VEHTYPE" speedFactor="1.15" vaporized=""/>
    <tripinfo id="flow_sn.0" depart="0.00" departLane="s_t_1" departPos="5.10" departSpeed="12.27" departDelay="0.00" arrival="57.00" arrivalLane="t_n_1" arrivalPos="186.40" arrivalSpeed="12.06" duration="57.00" routeLength="394.90" waitingTime="19.00" waitingCount="1" stopTime="0.00" timeLoss="24.48" rerouteNo="0" devices="tripinfo_flow_sn.0 fcd_flow_sn.0" vType="DEFAULT_VEHTYPE" speedFactor="0.88" vaporized=""/>
    <tripinfo id="flow_ws.2" depart="15.00" departLane="w_t_0" departPos="5.10" departSpeed="10.41" departDelay="0.60" arrival="57.00" arrivalLane="t_s_0" arrivalPos="186.40" arrivalSpeed="9.74" duration="42.00" routeLength="376.73" waitingTime="0.00" waitingCount="0" stopTime="0.00" timeLoss="4.05" rerouteNo="0" devices="tripinfo_flow_ws.2 fcd_flow_ws.2" vType="DEFAULT_VEHTYPE" speedFactor="0.75" vaporized=""/>
    <tripinfo id="flow_ws.3" depart="22.00" departLane="w_t_0" departPos="5.10" departSpeed="14.63" departDelay="0.40" arrival="58.00" arrivalLane="t_s_1" arrivalPos="186.40" arrivalSpeed="12.96" duration="36.00" routeLength="376.73" waitingTime="0.00" waitingCount="0" stopTime="0.00" timeLoss="9.54" rerouteNo="0" devices="tripinfo_flow_ws.3 fcd_flow_ws.3" vType="DEFAULT_VEHTYPE" speedFactor="1.05" vaporized=""/>
    <tripinfo id="flow_sn.1" depart="26.00" departLane="s_t_1" departPos="5.10" departSpeed="14.30" departDelay="0.29" arrival="59.00" arrivalLane="t_n_1" arrivalPos="186.40" arrivalSpeed="13.45" duration="33.00" routeLength="394.90" waitingTime="0.00" waitingCount="0" stopTime="0.00" timeLoss="4.75" rerouteNo="0" devices="tripinfo_flow_sn.1 fcd_flow_sn.1" vType="DEFAULT_VEHTYPE" speedFactor="1.03" vaporized=""/>
    <tripinfo id="flow_en.4" depart="29.00" departLane="e_t_0" departPos="5.10" departSpeed="14.59" departDelay="0.20" arrival="59.00" arrivalLane="t_n_0" arrivalPos="186.40" arrivalSpeed="14.07" duration="30.00" routeLength="376.73" waitingTime="0.00" waitingCount="0" stopTime="0.00" timeLoss="3.09" rerouteNo="0" devices="tripinfo_flow_en.4 fcd_flow_en.4" vType="DEFAULT_VEHTYPE" speedFactor="1.05" vaporized=""/>
    <tripinfo id="flow_ws.4" depart="29.00" departLane="w_t_0" departPos="5.10" departSpeed="14.00" departDelay="0.20" arrival="60.00" arrivalLane="t_s_0" arrivalPos="186.40" arrivalSpeed="12.91" duration="31.00" routeLength="376.73" waitingTime="0.00" waitingCount="0" stopTime="0.00" timeLoss="3.15" rerouteNo="0" devices="tripinfo_flow_ws.4 fcd_flow_ws.4" vType="DEFAULT_VEHTYPE" speedFactor="1.01" vaporized=""/>
    <tripinfo id="flow_wn.3" depart="22.00" departLane="w_t_2" departPos="5.10" departSpeed="14.17" departDelay="0.40" arrival="70.00" arrivalLane="t_n_2" arrivalPos="186.40" arrivalSpeed="13.06" duration="48.00" routeLength="392.21" waitingTime="13.00" waitingCount="1" stopTime="0.00" timeLoss="19.27" rerouteNo="0" devices="tripinfo_flow_wn.3 fcd_flow_wn.3" vType="DEFAULT_VEHTYPE" speedFactor="1.02" vaporized=""/>
    <tripinfo id="flow_es.3" depart="22.00" departLane="e_t_2" departPos="5.10" departSpeed="13.57" departDelay="0.40" arrival="71.00" arrivalLane="t_s_2" arrivalPos="186.40" arrivalSpeed="12.72" duration="49.00" routeLength="392.21" waitingTime="14.00" waitingCount="1" stopTime="0.00" timeLoss="19.05" rerouteNo="0" devices="tripinfo_flow_es.3 fcd_flow_es.3" vType="DEFAULT_VEHTYPE" speedFactor="0.98" vaporized=""/>
    <tripinfo id="flow_en.5" depart="36.00" departLane="e_t_0" departPos="5.10" departSpeed="12.61" departDelay="0.00" arrival="71.00" arrivalLane="t_n_0" arrivalPos="186.40" arrivalSpeed="12.61" duration="35.00" routeLength="376.73" waitingTime="0.00" waitingCount="0" stopTime="0.00" timeLoss="3.87" rerouteNo="0" devices="tripinfo_flow_en.5 fcd_flow_en.5" vType="DEFAULT_VEHTYPE" speedFactor="0.91" vaporized=""/>
    <tripinfo id="flow_es.4" depart="29.00" departLane="e_t_2" departPos="5.10" departSpeed="13.13" departDelay="0.20" arrival="74.00" arrivalLane="t_s_2" arrivalPos="186.40" arrivalSpeed="11.95" duration="45.00" routeLength="392.21" waitingTime="7.00" waitingCount="1" stopTime="0.00" timeLoss="14.37" rerouteNo="0" devices="tripinfo_flow_es.4 fcd_flow_es.4" vType="DEFAULT_VEHTYPE" speedFactor="0.94" vaporized=""/>
    <tripinfo id="flow_wn.4" depart="29.00" departLane="w_t_2" departPos="5.10" departSpeed="11.68" departDelay="0.20" arrival="76.00" arrivalLane="t_n_2" arrivalPos="186.40" arrivalSpeed="10.56" duration="47.00" routeLength="392.21" waitingTime="5.00" waitingCount="1" stopTime="0.00" timeLoss="12.39" rerouteNo="0" devices="tripinfo_flow_wn.4 fcd_flow_wn.4" vType="DEFAULT_VEHTYPE" speedFactor="0.84" vaporized=""/>
    <tripinfo id="flow_es.5" depart="36.00" departLane="e_t_2" departPos="5.10" departSpeed="12.21" departDelay="0.00" arrival="78.00" arrivalLane="t_s_2" arrivalPos="186.40" arrivalSpeed="11.34" duration="42.00" routeLength="392.21" waitingTime="0.00" waitingCount="0" stopTime="0.00" timeLoss="8.90" rerouteNo="0" devices="tripinfo_flow_es.5 fcd_flow_es.5" vType="DEFAULT_VEHTYPE" speedFactor="0.88" vaporized=""/>
    <tripinfo id="flow_wn.5" depart="36.00" departLane="w_t_2" departPos="5.10" departSpeed="16.41" departDelay="0.00" arrival="78.00" arrivalLane="t_n_2" arrivalPos="186.40" arrivalSpeed="14.09" duration="42.00" routeLength="392.21" waitingTime="3.00" waitingCount="1" stopTime="0.00" timeLoss="17.09" rerouteNo="0" devices="tripinfo_flow_wn.5 fcd_flow_wn.5" vType="DEFAULT_VEHTYPE" speedFactor="1.18" vaporized=""/>
    <tripinfo id="flow_ws.5" depart="36.00" departLane="w_t_0" departPos="5.10" departSpeed="10.40" departDelay="0.00" arrival="78.00" arrivalLane="t_s_0" arrivalPos="186.40" arrivalSpeed="9.29" duration="42.00" routeLength="376.73" waitingTime="0.00" waitingCount="0" stopTime="0.00" timeLoss="4.36" rerouteNo="0" devices="tripinfo_flow_ws.5 fcd_flow_ws.5" vType="DEFAULT_VEHTYPE" speedFactor="0.75" vaporized=""/>
    <tripinfo id="flow_wn.6" depart="44.00" departLane="w_t_2" departPos="5.10" departSpeed="15.43" departDelay="0.80" arrival="79.00" arrivalLane="t_n_2" arrivalPos="186.40" arrivalSpeed="14.46" duration="35.00" routeLength="392.21" waitingTime="0.00" waitingCount="0" stopTime="0.00" timeLoss="9.02" rerouteNo="0" devices="tripinfo_flow_wn.6 fcd_flow_wn.6" vType="DEFAULT_VEHTYPE" speedFactor="1.11" vaporized=""/>
    <tripinfo id="flow_en.6" depart="44.00" departLane="e_t_0" departPos="5.10" departSpeed="12.01" departDelay="0.80" arrival="80.00" arrivalLane="t_n_0" arrivalPos="186.40" arrivalSpeed="11.41" duration="36.00" routeLength="376.73" waitingTime="0.00" waitingCount="0" stopTime="0.00" timeLoss="3.34" rerouteNo="0" devices="tripinfo_flow_en.6 fcd_flow_en.6" vType="DEFAULT_VEHTYPE" speedFactor="0.86" vaporized=""/>
    <tripinfo id="flow_es.6" depart="44.00" departLane="e_t_2" departPos="5.10" departSpeed="12.88" departDelay="0.80" arrival="80.00" arrivalLane="t_s_2" arrivalPos="186.40" arrivalSpeed="11.61" duration="36.00" routeLength="392.21" waitingTime="0.00" waitingCount="0" stopTime="0.00" timeLoss="4.34" rerouteNo="0" devices="tripinfo_flow_es.6 fcd_flow_es.6" vType="DEFAULT_VEHTYPE" speedFactor="0.93" vaporized=""/>
    <tripinfo id="flow_ws.6" depart="44.00" departLane="w_t_0" departPos="5.10" departSpeed="12.26" departDelay="0.80" arrival="80.00" arrivalLane="t_s_1" arrivalPos="186.40" arrivalSpeed="11.06" duration="36.00" routeLength="376.73" waitingTime="0.00" waitingCount="0" stopTime="0.00" timeLoss="4.04" rerouteNo="0" devices="tripinfo_flow_ws.6 fcd_flow_ws.6" vType="DEFAULT_VEHTYPE" speedFactor="0.88" vaporized=""/>
    <tripinfo id="flow_wn.7" depart="51.00" departLane="w_t_2" departPos="5.10" departSpeed="16.94" departDelay="0.60" arrival="81.00" arrivalLane="t_n_2" arrivalPos="186.40" arrivalSpeed="16.80" duration="30.00" routeLength="392.21" waitingTime="0.00" waitingCount="0" stopTime="0.00" timeLoss="5.96" rerouteNo="0" devices="tripinfo_flow_wn.7 fcd_flow_wn.7" vType="DEFAULT_VEHTYPE" speedFactor="1.22" vaporized=""/>
    <tripinfo id="flow_se.2" depart="52.00" departLane="s_t_0" departPos="5.10" departSpeed="14.16" departDelay="0.57" arrival="83.00" arrivalLane="t_e_0" arrivalPos="186.40" arrivalSpeed="13.63" duration="31.00" routeLength="376.73" waitingTime="0.00" waitingCount="0" stopTime="0.00" timeLoss="3.31" rerouteNo="0" devices="tripinfo_flow_se.2 fcd_flow_se.2" vType="DEFAULT_VEHTYPE" speedFactor="1.02" vaporized=""/>
    <tripinfo id="flow_en.7" depart="51.00" departLane="e_t_0" departPos="5.10" departSpeed="12.79" departDelay="0.60" arrival="85.00" arrivalLane="t_n_0" arrivalPos="186.40" arrivalSpeed="12.22" duration="34.00" routeLength="376.73" waitingTime="0.00" waitingCount="0" stopTime="0.00" timeLoss="3.26" rerouteNo="0" devices="tripinfo_flow_en.7 fcd_flow_en.7" vType="DEFAULT_VEHTYPE" speedFactor="0.92" vaporized=""/>
    <tripinfo id="flow_ws.7" depart="51.00" departLane="w_t_0" departPos="5.10" departSpeed="12.69" departDelay="0.60" arrival="85.00" arrivalLane="t_s_0" arrivalPos="186.40" arrivalSpeed="11.48" duration="34.00" routeLength="376.73" waitingTime="0.00" waitingCount="0" stopTime="0.00" timeLoss="3.29" rerouteNo="0" devices="tripinfo_flow_ws.7 fcd_flow_ws.7" vType="DEFAULT_VEHTYPE" speedFactor="0.91" vaporized=""/>
    <tripinfo id="flow_nw.2" depart="52.00" departLane="n_t_0" departPos="5.10" departSpeed="12.89" departDelay="0.57" arrival="86.00" arrivalLane="t_w_0" arrivalPos="186.40" arrivalSpeed="11.99" duration="34.00" routeLength="376.73" waitingTime="0.00" waitingCount="0" stopTime="0.00" timeLoss="3.37" rerouteNo="0" devices="tripinfo_flow_nw.2 fcd_flow_nw.2" vType="DEFAULT_VEHTYPE" speedFactor="0.93" vaporized=""/>
    <tripinfo id="flow_wn.8" depart="58.00" departLane="w_t_2" departPos="5.10" departSpeed="14.34" departDelay="0.40" arrival="90.00" arrivalLane="t_n_2" arrivalPos="186.40" arrivalSpeed="13.84" duration="32.00" routeLength="392.21" waitingTime="0.00" waitingCount="0" stopTime="0.00" timeLoss="3.42" rerouteNo="0" devices="tripinfo_flow_wn.8 fcd_flow_wn.8" vType="DEFAULT_VEHTYPE" speedFactor="1.03" vaporized=""/>
    <tripinfo id="flow_wn.9" depart="65.00" departLane="w_t_2" departPos="5.10" departSpeed="16.88" departDelay="0.20" arrival="92.00" arrivalLane="t_n_2" arrivalPos="186.40" arrivalSpeed="16.83" duration="27.00" routeLength="392.21" waitingTime="0.00" waitingCount="0" stopTime="0.00" timeLoss="2.94" rerouteNo="0" devices="tripinfo_flow_wn.9 fcd_flow_wn.9" vType="DEFAULT_VEHTYPE" speedFactor="1.22" vaporized=""/>
    <tripinfo id="flow_ws.8" depart="58.00" departLane="w_t_0" departPos="5.10" departSpeed="12.65" departDelay="0.40" arrival="93.00" arrivalLane="t_s_0" arrivalPos="186.40" arrivalSpeed="12.43" duration="35.00" routeLength="376.73" waitingTime="0.00" waitingCount="0" stopTime="0.00" timeLoss="3.87" rerouteNo="0" devices="tripinfo_flow_ws.8 fcd_flow_ws.8" vType="DEFAULT_VEHTYPE" speedFactor="0.91" vaporized=""/>
    <tripinfo id="flow_ws.9" depart="65.00" departLane="w_t_0" departPos="5.10" departSpeed="16.43" departDelay="0.20" arrival="94.00" arrivalLane="t_s_0" arrivalPos="186.40" arrivalSpeed="14.40" duration="29.00" routeLength="376.73" waitingTime="0.00" waitingCount="0" stopTime="0.00" timeLoss="5.35" rerouteNo="0" devices="tripinfo_flow_ws.9 fcd_flow_ws.9" vType="DEFAULT_VEHTYPE" speedFactor="1.18" vaporized=""/>
    <tripinfo id="flow_es.8" depart="58.00" departLane="e_t_2" departPos="5.10" departSpeed="14.09" departDelay="0.40" arrival="95.00" arrivalLane="t_s_1" arrivalPos="186.40" arrivalSpeed="13.69" duration="37.00" routeLength="392.21" waitingTime="0.00" waitingCount="0" stopTime="0.00" timeLoss="8.20" rerouteNo="0" devices="tripinfo_flow_es.8 fcd_flow_es.8" vType="DEFAULT_VEHTYPE" speedFactor="1.01" vaporized=""/>
    <tripinfo id="flow_en.8" depart="58.00" departLane="e_t_0" departPos="5.10" departSpeed="11.48" departDelay="0.40" arrival="96.00" arrivalLane="t_n_0" arrivalPos="186.40" arrivalSpeed="10.73" duration="38.00" routeLength="376.73" waitingTime="0.00" waitingCount="0" stopTime="0.00" timeLoss="3.86" rerouteNo="0" devices="tripinfo_flow_en.8 fcd_flow_en.8" vType="DEFAULT_VEHTYPE" speedFactor="0.83" vaporized=""/>
    <tripinfo id="flow_es.7" depart="51.00" departLane="e_t_2" departPos="5.10" departSpeed="9.51" departDelay="0.60" arrival="97.00" arrivalLane="t_s_1" arrivalPos="186.40" arrivalSpeed="8.38" duration="46.00" routeLength="392.21" waitingTime="0.00" waitingCount="0" stopTime="0.00" timeLoss="3.71" rerouteNo="0" devices="tripinfo_flow_es.7 fcd_flow_es.7" vType="DEFAULT_VEHTYPE" speedFactor="0.68" vaporized=""/>
    <tripinfo id="flow_en.9" depart="65.00" departLane="e_t_0" departPos="5.10" departSpeed="14.58" departDelay="0.20" arrival="97.00" arrivalLane="t_n_0" arrivalPos="186.40" arrivalSpeed="13.76" duration="32.00" routeLength="376.73" waitingTime="0.00" waitingCount="0" stopTime="0.00" timeLoss="4.96" rerouteNo="0" devices="tripinfo_flow_en.9 fcd_flow_en.9" vType="DEFAULT_VEHTYPE" speedFactor="1.05" vaporized=""/>
    <tripinfo id="flow_es.9" depart="65.00" departLane="e_t_2" departPos="5.10" departSpeed="12.20" departDelay="0.20" arrival="101.00" arrivalLane="t_s_2" arrivalPos="186.40" arrivalSpeed="11.85" duration="36.00" routeLength="392.21" waitingTime="0.00" waitingCount="0" stopTime="0.00" timeLoss="2.78" rerouteNo="0" devices="tripinfo_flow_es.9 fcd_flow_es.9" vType="DEFAULT_VEHTYPE" speedFactor="0.88" vaporized=""/>
    <tripinfo id="flow_es.10" depart="72.00" departLane="e_t_2" departPos="5.10" departSpeed="14.61" departDelay="0.00" arrival="103.00" arrivalLane="t_s_2" arrivalPos="186.40" arrivalSpeed="13.41" duration="31.00" routeLength="392.21" waitingTime="0.00" waitingCount="0" stopTime="0.00" timeLoss="3.07" rerouteNo="0" devices="tripinfo_flow_es.10 fcd_flow_es.10" vType="DEFAULT_VEHTYPE" speedFactor="1.05" vaporized=""/>
    <tripinfo id="flow_ws.10" depart="72.00" departLane="w_t_0" departPos="5.10" departSpeed="14.18" departDelay="0.00" arrival="103.00" arrivalLane="t_s_0" arrivalPos="186.40" arrivalSpeed="13.09" duration="31.00" routeLength="376.73" waitingTime="0.00" waitingCount="0" stopTime="0.00" timeLoss="3.44" rerouteNo="0" devices="tripinfo_flow_ws.10 fcd_flow_ws.10" vType="DEFAULT_VEHTYPE" speedFactor="1.02" vaporized=""/>
    <tripinfo id="flow_wn.10" depart="72.00" departLane="w_t_2" departPos="5.10" departSpeed="12.77" departDelay="0.00" arrival="106.00" arrivalLane="t_n_2" arrivalPos="186.40" arrivalSpeed="11.90" duration="34.00" routeLength="392.21" waitingTime="0.00" waitingCount="0" stopTime="0.00" timeLoss="2.37" rerouteNo="0" devices="tripinfo_flow_wn.10 fcd_flow_wn.10" vType="DEFAULT_VEHTYPE" speedFactor="0.92" vaporized=""/>
    <tripinfo id="flow_en.10" depart="72.00" departLane="e_t_0" departPos="5.10" departSpeed="12.44" departDelay="0.00" arrival="107.00" arrivalLane="t_n_0" arrivalPos="186.40" arrivalSpeed="11.73" duration="35.00" routeLength="376.73" waitingTime="0.00" waitingCount="0" stopTime="0.00" timeLoss="3.49" rerouteNo="0" devices="tripinfo_flow_en.10 fcd_flow_en.10" vType="DEFAULT_VEHTYPE" speedFactor="0.90" vaporized=""/>
    <tripinfo id="flow_en.11" depart="80.00" departLane="e_t_0" departPos="5.10" departSpeed="15.64" departDelay="0.80" arrival="108.00" arrivalLane="t_n_0" arrivalPos="186.40" arrivalSpeed="13.80" duration="28.00" routeLength="376.73" waitingTime="0.00" waitingCount="0" stopTime="0.00" timeLoss="3.37" rerouteNo="0" devices="tripinfo_flow_en.11 fcd_flow_en.11" vType="DEFAULT_VEHTYPE" speedFactor="1.13" vaporized=""/>
    <tripinfo id="flow_ws.11" depart="80.00" departLane="w_t_0" departPos="5.10" departSpeed="15.64" departDelay="0.80" arrival="108.00" arrivalLane="t_s_0" arrivalPos="186.40" arrivalSpeed="15.25" duration="28.00" routeLength="376.73" waitingTime="0.00" waitingCount="0" stopTime="0.00" timeLoss="2.71" rerouteNo="0" devices="tripinfo_flow_ws.11 fcd_flow_ws.11" vType="DEFAULT_VEHTYPE" speedFactor="1.13" vaporized=""/>
    <tripinfo id="flow_wn.11" depart="80.00" departLane="w_t_2" departPos="5.10" departSpeed="14.94" departDelay="0.80" arrival="109.00" arrivalLane="t_n_2" arrivalPos="186.40" arrivalSpeed="14.85" duration="29.00" routeLength="392.21" waitingTime="0.00" waitingCount="0" stopTime="0.00" timeLoss="2.10" rerouteNo="0" devices="tripinfo_flow_wn.11 fcd_flow_wn.11" vType="DEFAULT_VEHTYPE" speedFactor="1.08" vaporized=""/>
    <tripinfo id="flow_nw.3" depart="78.00" departLane="n_t_0" departPos="5.10" departSpeed="13.56" departDelay="0.86" arrival="110.00" arrivalLane="t_w_0" arrivalPos="186.40" arrivalSpeed="12.48" duration="32.00" routeLength="376.73" waitingTime="0.00" waitingCount="0" stopTime="0.00" timeLoss="2.96" rerouteNo="0" devices="tripinfo_flow_nw.3 fcd_flow_nw.3" vType="DEFAULT_VEHTYPE" speedFactor="0.98" vaporized=""/>
    <tripinfo id="flow_es.11" depart="80.00" departLane="e_t_2" departPos="5.10" departSpeed="14.60" departDelay="0.80" arrival="111.00" arrivalLane="t_s_2" arrivalPos="186.40" arrivalSpeed="14.03" duration="31.00" routeLength="392.21" waitingTime="0.00" waitingCount="0" stopTime="0.00" timeLoss="3.39" rerouteNo="0" devices="tripinfo_flow_es.11 fcd_flow_es.11" vType="DEFAULT_VEHTYPE" speedFactor="1.05" vaporized=""/>
    <tripinfo id="flow_se.3" depart="78.00" departLane="s_t_0" departPos="5.10" departSpeed="12.83" departDelay="0.86" arrival="112.00" arrivalLane="t_e_0" arrivalPos="186.40" arrivalSpeed="12.44" duration="34.00" routeLength="376.73" waitingTime="0.00" waitingCount="0" stopTime="0.00" timeLoss="3.34" rerouteNo="0" devices="tripinfo_flow_se.3 fcd_flow_se.3" vType="DEFAULT_VEHTYPE" speedFactor="0.92" vaporized=""/>
    <tripinfo id="flow_wn.12" depart="87.00" departLane="w_t_2" departPos="5.10" departSpeed="17.22" departDelay="0.60" arrival="114.00" arrivalLane="t_n_2" arrivalPos="186.40" arrivalSpeed="17.21" duration="27.00" routeLength="392.21" waitingTime="0.00" waitingCount="0" stopTime="0.00" timeLoss="3.09" rerouteNo="0" devices="tripinfo_flow_wn.12 fcd_flow_wn.12" vType="DEFAULT_VEHTYPE" speedFactor="1.24" vaporized=""/>
    <tripinfo id="flow_en.12" depart="87.00" departLane="e_t_0" departPos="5.10" departSpeed="14.07" departDelay="0.60" arrival="118.00" arrivalLane="t_n_0" arrivalPos="186.40" arrivalSpeed="14.04" duration="31.00" routeLength="376.73" waitingTime="0.00" waitingCount="0" stopTime="0.00" timeLoss="3.00" rerouteNo="0" devices="tripinfo_flow_en.12 fcd_flow_en.12" vType="DEFAULT_VEHTYPE" speedFactor="1.01" vaporized=""/>
    <tripinfo id="flow_ws.12" depart="87.00" departLane="w_t_0" departPos="5.10" departSpeed="12.52" departDelay="0.60" arrival="122.00" arrivalLane="t_s_0" arrivalPos="186.40" arrivalSpeed="11.71" duration="35.00" routeLength="376.73" waitingTime="0.00" waitingCount="0" stopTime="0.00" timeLoss="3.86" rerouteNo="0" devices="tripinfo_flow_ws.12 fcd_flow_ws.12" vType="DEFAULT_VEHTYPE" speedFactor="0.90" vaporized=""/>
    <tripinfo id="flow_es.12" depart="87.00" departLane="e_t_2" departPos="5.10" departSpeed="12.20" departDelay="0.60" arrival="123.00" arrivalLane="t_s_2" arrivalPos="186.40" arrivalSpeed="11.98" duration="36.00" routeLength="392.21" waitingTime="0.00" waitingCount="0" stopTime="0.00" timeLoss="2.86" rerouteNo="0" devices="tripinfo_flow_es.12 fcd_flow_es.12" vType="DEFAULT_VEHTYPE" speedFactor="0.88" vaporized=""/>
    <tripinfo id="flow_en.13" depart="94.00" departLane="e_t_0" departPos="5.10" departSpeed="15.22" departDelay="0.40" arrival="123.00" arrivalLane="t_n_0" arrivalPos="186.40" arrivalSpeed="14.79" duration="29.00" routeLength="376.73" waitingTime="0.00" waitingCount="0" stopTime="0.00" timeLoss="2.88" rerouteNo="0" devices="tripinfo_flow_en.13 fcd_flow_en.13" vType="DEFAULT_VEHTYPE" speedFactor="1.10" vaporized=""/>
    <tripinfo id="flow_ws.13" depart="94.00" departLane="w_t_0" departPos="5.10" departSpeed="15.17" departDelay="0.40" arrival="124.00" arrivalLane="t_s_0" arrivalPos="186.40" arrivalSpeed="15.02" duration="30.00" routeLength="376.73" waitingTime="0.00" waitingCount="0" stopTime="0.00" timeLoss="3.85" rerouteNo="0" devices="tripinfo_flow_ws.13 fcd_flow_ws.13" vType="DEFAULT_VEHTYPE" speedFactor="1.09" vaporized=""/>
    <tripinfo id="flow_es.13" depart="94.00" departLane="e_t_2" departPos="5.10" departSpeed="14.81" departDelay="0.40" arrival="125.00" arrivalLane="t_s_2" arrivalPos="186.40" arrivalSpeed="13.83" duration="31.00" routeLength="392.21" waitingTime="0.00" waitingCount="0" stopTime="0.00" timeLoss="3.58" rerouteNo="0" devices="tripinfo_flow_es.13 fcd_flow_es.13" vType="DEFAULT_VEHTYPE" speedFactor="1.07" vaporized=""/>
    <tripinfo id="flow_wn.13" depart="94.00" departLane="w_t_2" departPos="5.10" departSpeed="13.63" departDelay="0.40" arrival="127.00" arrivalLane="t_n_2" arrivalPos="186.40" arrivalSpeed="13.25" duration="33.00" routeLength="392.21" waitingTime="0.00" waitingCount="0" stopTime="0.00" timeLoss="3.32" rerouteNo="0" devices="tripinfo_flow_wn.13 fcd_flow_wn.13" vType="DEFAULT_VEHTYPE" speedFactor="0.98" vaporized=""/>