<?xml version="1.0" encoding="UTF-8"?>

<!-- generated on 2025-06-24 16:54:40 by Eclipse SUMO libsumo Version 1.19.0
<configuration xmlns:xsi="http://www.w3.org/2001/XMLSchema-instance" xsi:noNamespaceSchemaLocation="http://sumo.dlr.de/xsd/libsumoConfiguration.xsd">

    <input>
        <net-file value="./nets/syc/1x1/Equal_entries_350_CT/85-15-Truck-Car/syc_4phases.net.xml"/>
        <route-files value="./nets/syc/1x1/Equal_entries_350_CT/85-15-Truck-Car/equal_entries_350_54_85-15-TC.rou.xml"/>
        <additional-files value="./nets/syc/1x1/Equal_entries_350_CT/85-15-Truck-Car/1x1_outputs.add.xml"/>
    </input>

    <output>
        <fcd-output value="./nets/syc/1x1/Equal_entries_350_CT/85-15-Truck-Car/output/fcd_output.xml"/>
        <tripinfo-output value="./nets/syc/1x1/Equal_entries_350_CT/85-15-Truck-Car/output/tripinfo.out.xml"/>
    </output>

    <time>
        <begin value="0"/>
        <end value="1000"/>
    </time>

    <processing>
        <time-to-teleport value="-1"/>
        <waiting-time-memory value="1000"/>
        <max-depart-delay value="-1"/>
    </processing>

    <random_number>
        <seed value="0"/>
    </random_number>

</configuration>
-->

<meandata xmlns:xsi="http://www.w3.org/2001/XMLSchema-instance" xsi:noNamespaceSchemaLocation="http://sumo.dlr.de/xsd/meandata_file.xsd">
    <interval begin="0.00" end="10.00" id="1">
        <edge id="e_t" sampledSeconds="51.00" traveltime="14.52" overlapTraveltime="14.90" density="27.36" laneDensity="9.12" occupancy="4.56" waitingTime="0.00" timeLoss="3.36" speed="12.84" speedRelative="0.92" departed="6" arrived="0" entered="0" left="0" laneChangedFrom="0" laneChangedTo="0"/>
        <edge id="n_t" sampledSeconds="51.00" traveltime="14.48" overlapTraveltime="14.87" density="27.36" laneDensity="9.12" occupancy="4.56" waitingTime="0.00" timeLoss="5.30" speed="12.87" speedRelative="0.93" departed="6" arrived="0" entered="0" left="0" laneChangedFrom="0" laneChangedTo="0"/>
        <edge id="s_t" sampledSeconds="51.00" traveltime="14.59" overlapTraveltime="14.99" density="27.36" laneDensity="9.12" occupancy="4.56" waitingTime="0.00" timeLoss="4.52" speed="12.77" speedRelative="0.92" departed="6" arrived="0" entered="0" left="0" laneChangedFrom="0" laneChangedTo="0"/>
        <edge id="t_e" sampledSeconds="0.00" departed="0" arrived="0" entered="0" left="0" laneChangedFrom="0" laneChangedTo="0"/>
        <edge id="t_n" sampledSeconds="0.00" departed="0" arrived="0" entered="0" left="0" laneChangedFrom="0" laneChangedTo="0"/>
        <edge id="t_s" sampledSeconds="0.00" departed="0" arrived="0" entered="0" left="0" laneChangedFrom="0" laneChangedTo="0"/>
        <edge id="t_w" sampledSeconds="0.00" departed="0" arrived="0" entered="0" left="0" laneChangedFrom="0" laneChangedTo="0"/>
        <edge id="w_t" sampledSeconds="51.00" traveltime="14.91" overlapTraveltime="15.31" density="27.36" laneDensity="9.12" occupancy="4.56" waitingTime="0.00" timeLoss="3.28" speed="12.50" speedRelative="0.90" departed="6" arrived="0" entered="0" left="0" laneChangedFrom="0" laneChangedTo="0"/>
    </interval>
    <interval begin="10.00" end="20.00" id="1">
        <edge id="e_t" sampledSeconds="65.76" traveltime="17.22" overlapTraveltime="17.91" density="35.28" laneDensity="11.76" occupancy="5.78" waitingTime="3.00" timeLoss="14.13" speed="10.69" speedRelative="0.77" departed="3" arrived="0" entered="0" left="3" laneChangedFrom="0" laneChangedTo="0"/>
        <edge id="n_t" sampledSeconds="70.65" traveltime="19.05" overlapTraveltime="19.82" density="37.90" laneDensity="12.63" occupancy="6.19" waitingTime="6.00" timeLoss="20.91" speed="9.66" speedRelative="0.70" departed="3" arrived="0" entered="0" left="4" laneChangedFrom="0" laneChangedTo="0"/>
        <edge id="s_t" sampledSeconds="69.60" traveltime="18.49" overlapTraveltime="19.44" density="37.34" laneDensity="12.45" occupancy="6.09" waitingTime="2.00" timeLoss="18.65" speed="9.85" speedRelative="0.71" departed="3" arrived="0" entered="0" left="3" laneChangedFrom="0" laneChangedTo="0"/>
        <edge id="t_e" sampledSeconds="8.15" traveltime="17.85" overlapTraveltime="18.32" density="4.37" laneDensity="1.46" occupancy="0.64" waitingTime="0.00" timeLoss="2.26" speed="10.44" speedRelative="0.75" departed="0" arrived="0" entered="3" left="0" laneChangedFrom="0" laneChangedTo="0"/>
        <edge id="t_n" sampledSeconds="5.68" traveltime="16.15" overlapTraveltime="16.59" density="3.05" laneDensity="1.02" occupancy="0.46" waitingTime="0.00" timeLoss="1.67" speed="11.54" speedRelative="0.83" departed="0" arrived="0" entered="2" left="0" laneChangedFrom="0" laneChangedTo="0"/>
        <edge id="t_s" sampledSeconds="5.64" traveltime="17.75" overlapTraveltime="18.23" density="3.02" laneDensity="1.01" occupancy="0.44" waitingTime="0.00" timeLoss="1.70" speed="10.50" speedRelative="0.76" departed="0" arrived="0" entered="2" left="0" laneChangedFrom="0" laneChangedTo="0"/>
        <edge id="t_w" sampledSeconds="7.51" traveltime="16.90" overlapTraveltime="17.36" density="4.03" laneDensity="1.34" occupancy="0.58" waitingTime="0.00" timeLoss="1.74" speed="11.03" speedRelative="0.79" departed="0" arrived="0" entered="3" left="0" laneChangedFrom="0" laneChangedTo="0"/>
        <edge id="w_t" sampledSeconds="67.29" traveltime="18.10" overlapTraveltime="18.78" density="36.10" laneDensity="12.03" occupancy="5.92" waitingTime="4.00" timeLoss="14.17" speed="10.19" speedRelative="0.73" departed="3" arrived="0" entered="0" left="3" laneChangedFrom="0" laneChangedTo="0"/>
    </interval>
    <interval begin="20.00" end="30.00" id="1">
        <edge id="e_t" sampledSeconds="70.77" traveltime="33.82" overlapTraveltime="34.66" density="37.97" laneDensity="12.66" occupancy="6.29" waitingTime="31.00" timeLoss="42.14" speed="5.52" speedRelative="0.40" departed="3" arrived="0" entered="0" left="1" laneChangedFrom="0" laneChangedTo="0"/>
        <edge id="n_t" sampledSeconds="59.71" traveltime="24.60" overlapTraveltime="25.37" density="32.04" laneDensity="10.68" occupancy="5.27" waitingTime="20.00" timeLoss="26.25" speed="7.55" speedRelative="0.54" departed="3" arrived="0" entered="0" left="2" laneChangedFrom="0" laneChangedTo="0"/>
        <edge id="s_t" sampledSeconds="60.60" traveltime="25.43" overlapTraveltime="26.23" density="32.51" laneDensity="10.84" occupancy="5.32" waitingTime="19.00" timeLoss="27.82" speed="7.30" speedRelative="0.53" departed="3" arrived="0" entered="0" left="3" laneChangedFrom="0" laneChangedTo="0"/>
        <edge id="t_e" sampledSeconds="48.15" traveltime="15.06" overlapTraveltime="15.44" density="25.83" laneDensity="8.61" occupancy="4.21" waitingTime="0.00" timeLoss="5.00" speed="12.40" speedRelative="0.89" departed="0" arrived="1" entered="3" left="0" laneChangedFrom="0" laneChangedTo="0"/>
        <edge id="t_n" sampledSeconds="18.56" traveltime="14.39" overlapTraveltime="14.74" density="9.96" laneDensity="3.32" occupancy="1.60" waitingTime="0.00" timeLoss="1.57" speed="12.99" speedRelative="0.93" departed="0" arrived="1" entered="1" left="0" laneChangedFrom="0" laneChangedTo="0"/>
        <edge id="t_s" sampledSeconds="19.80" traveltime="14.36" overlapTraveltime="14.72" density="10.62" laneDensity="3.54" occupancy="1.73" waitingTime="0.00" timeLoss="1.69" speed="13.00" speedRelative="0.94" departed="0" arrived="1" entered="1" left="0" laneChangedFrom="0" laneChangedTo="0"/>
        <edge id="t_w" sampledSeconds="46.26" traveltime="14.24" overlapTraveltime="14.62" density="24.82" laneDensity="8.27" occupancy="4.05" waitingTime="0.00" timeLoss="5.22" speed="13.09" speedRelative="0.94" departed="0" arrived="1" entered="3" left="0" laneChangedFrom="0" laneChangedTo="0"/>
        <edge id="w_t" sampledSeconds="71.04" traveltime="29.43" overlapTraveltime="30.23" density="38.11" laneDensity="12.70" occupancy="6.32" waitingTime="29.00" timeLoss="37.25" speed="6.33" speedRelative="0.46" departed="3" arrived="0" entered="0" left="1" laneChangedFrom="0" laneChangedTo="0"/>
    </interval>
    <interval begin="30.00" end="40.00" id="1">
        <edge id="e_t" sampledSeconds="86.00" traveltime="40.04" overlapTraveltime="41.11" density="46.14" laneDensity="15.38" occupancy="7.69" waitingTime="50.00" timeLoss="52.61" speed="4.66" speedRelative="0.34" departed="3" arrived="0" entered="0" left="0" laneChangedFrom="0" laneChangedTo="0"/>
        <edge id="n_t" sampledSeconds="66.00" traveltime="29.94" overlapTraveltime="30.74" density="35.41" laneDensity="11.80" occupancy="5.90" waitingTime="29.00" timeLoss="34.54" speed="6.23" speedRelative="0.45" departed="3" arrived="0" entered="0" left="0" laneChangedFrom="0" laneChangedTo="0"/>
        <edge id="s_t" sampledSeconds="66.00" traveltime="28.39" overlapTraveltime="29.15" density="35.41" laneDensity="11.80" occupancy="5.90" waitingTime="30.00" timeLoss="32.26" speed="6.57" speedRelative="0.47" departed="3" arrived="0" entered="0" left="0" laneChangedFrom="0" laneChangedTo="0"/>
        <edge id="t_e" sampledSeconds="41.49" traveltime="15.07" overlapTraveltime="15.46" density="22.26" laneDensity="7.42" occupancy="3.62" waitingTime="0.00" timeLoss="4.58" speed="12.38" speedRelative="0.89" departed="0" arrived="4" entered="1" left="0" laneChangedFrom="0" laneChangedTo="0"/>
        <edge id="t_n" sampledSeconds="16.77" traveltime="15.70" overlapTraveltime="16.13" density="8.99" laneDensity="3.00" occupancy="1.48" waitingTime="0.00" timeLoss="1.97" speed="11.86" speedRelative="0.85" departed="0" arrived="1" entered="0" left="0" laneChangedFrom="0" laneChangedTo="0"/>
        <edge id="t_s" sampledSeconds="15.58" traveltime="15.43" overlapTraveltime="15.83" density="8.36" laneDensity="2.79" occupancy="1.35" waitingTime="0.00" timeLoss="1.64" speed="12.09" speedRelative="0.87" departed="0" arrived="1" entered="1" left="0" laneChangedFrom="0" laneChangedTo="0"/>
        <edge id="t_w" sampledSeconds="38.79" traveltime="13.60" overlapTraveltime="13.95" density="20.81" laneDensity="6.94" occupancy="3.38" waitingTime="0.00" timeLoss="3.56" speed="13.72" speedRelative="0.99" departed="0" arrived="4" entered="1" left="0" laneChangedFrom="0" laneChangedTo="0"/>
        <edge id="w_t" sampledSeconds="84.85" traveltime="37.78" overlapTraveltime="38.67" density="45.52" laneDensity="15.17" occupancy="7.55" waitingTime="49.00" timeLoss="53.33" speed="4.95" speedRelative="0.36" departed="3" arrived="0" entered="0" left="1" laneChangedFrom="0" laneChangedTo="0"/>
    </interval>
    <interval begin="40.00" end="50.00" id="1">
        <edge id="e_t" sampledSeconds="103.98" traveltime="45.63" overlapTraveltime="46.79" density="55.78" laneDensity="18.59" occupancy="9.25" waitingTime="62.00" timeLoss="70.98" speed="4.09" speedRelative="0.29" departed="3" arrived="0" entered="0" left="1" laneChangedFrom="0" laneChangedTo="0"/>
        <edge id="n_t" sampledSeconds="74.01" traveltime="34.27" overlapTraveltime="35.37" density="39.71" laneDensity="13.24" occupancy="6.49" waitingTime="32.00" timeLoss="41.40" speed="5.41" speedRelative="0.39" departed="3" arrived="0" entered="0" left="3" laneChangedFrom="0" laneChangedTo="0"/>
        <edge id="s_t" sampledSeconds="72.72" traveltime="33.26" overlapTraveltime="34.21" density="39.01" laneDensity="13.00" occupancy="6.39" waitingTime="31.00" timeLoss="41.65" speed="5.59" speedRelative="0.40" departed="3" arrived="0" entered="0" left="3" laneChangedFrom="0" laneChangedTo="0"/>
        <edge id="t_e" sampledSeconds="25.45" traveltime="15.10" overlapTraveltime="15.46" density="13.65" laneDensity="4.55" occupancy="2.19" waitingTime="0.00" timeLoss="2.52" speed="12.38" speedRelative="0.89" departed="0" arrived="2" entered="2" left="0" laneChangedFrom="0" laneChangedTo="0"/>
        <edge id="t_n" sampledSeconds="10.19" traveltime="16.31" overlapTraveltime="16.63" density="5.47" laneDensity="1.82" occupancy="0.86" waitingTime="0.00" timeLoss="1.24" speed="11.51" speedRelative="0.83" departed="0" arrived="1" entered="1" left="0" laneChangedFrom="0" laneChangedTo="0"/>
        <edge id="t_s" sampledSeconds="15.00" traveltime="13.19" overlapTraveltime="13.54" density="8.05" laneDensity="2.68" occupancy="1.34" waitingTime="0.00" timeLoss="1.28" speed="14.13" speedRelative="1.02" departed="0" arrived="1" entered="0" left="0" laneChangedFrom="0" laneChangedTo="0"/>
        <edge id="t_w" sampledSeconds="18.99" traveltime="16.29" overlapTraveltime="16.57" density="10.19" laneDensity="3.40" occupancy="1.59" waitingTime="0.00" timeLoss="2.63" speed="11.55" speedRelative="0.83" departed="0" arrived="2" entered="2" left="0" laneChangedFrom="0" laneChangedTo="0"/>
        <edge id="w_t" sampledSeconds="100.00" traveltime="50.65" overlapTraveltime="52.01" density="53.65" laneDensity="17.88" occupancy="8.94" waitingTime="64.00" timeLoss="71.65" speed="3.68" speedRelative="0.26" departed="3" arrived="0" entered="0" left="0" laneChangedFrom="0" laneChangedTo="0"/>
    </interval>
    <interval begin="50.00" end="60.00" id="1">
        <edge id="e_t" sampledSeconds="123.99" traveltime="52.99" overlapTraveltime="54.18" density="66.52" laneDensity="22.17" occupancy="11.05" waitingTime="88.00" timeLoss="91.40" speed="3.53" speedRelative="0.25" departed="0" arrived="0" entered="0" left="1" laneChangedFrom="0" laneChangedTo="0"/>
        <edge id="n_t" sampledSeconds="62.62" traveltime="21.41" overlapTraveltime="22.09" density="33.60" laneDensity="11.20" occupancy="5.46" waitingTime="5.00" timeLoss="19.21" speed="8.67" speedRelative="0.62" departed="0" arrived="0" entered="0" left="5" laneChangedFrom="0" laneChangedTo="0"/>
        <edge id="s_t" sampledSeconds="63.72" traveltime="19.88" overlapTraveltime="20.65" density="34.19" laneDensity="11.40" occupancy="5.55" waitingTime="5.00" timeLoss="21.65" speed="9.27" speedRelative="0.67" departed="0" arrived="0" entered="0" left="5" laneChangedFrom="0" laneChangedTo="0"/>
        <edge id="t_e" sampledSeconds="20.17" traveltime="15.16" overlapTraveltime="15.55" density="10.82" laneDensity="3.61" occupancy="1.76" waitingTime="0.00" timeLoss="1.48" speed="12.31" speedRelative="0.89" departed="0" arrived="2" entered="1" left="0" laneChangedFrom="0" laneChangedTo="0"/>
        <edge id="t_n" sampledSeconds="36.09" traveltime="16.96" overlapTraveltime="17.41" density="19.36" laneDensity="6.45" occupancy="3.09" waitingTime="0.00" timeLoss="3.90" speed="10.99" speedRelative="0.79" departed="0" arrived="0" entered="6" left="0" laneChangedFrom="0" laneChangedTo="0"/>
        <edge id="t_s" sampledSeconds="32.98" traveltime="13.79" overlapTraveltime="14.14" density="17.69" laneDensity="5.90" occupancy="2.81" waitingTime="0.00" timeLoss="3.75" speed="13.54" speedRelative="0.97" departed="0" arrived="1" entered="6" left="0" laneChangedFrom="0" laneChangedTo="0"/>
        <edge id="t_w" sampledSeconds="24.38" traveltime="16.52" overlapTraveltime="16.97" density="13.08" laneDensity="4.36" occupancy="2.14" waitingTime="0.00" timeLoss="2.08" speed="11.28" speedRelative="0.81" departed="0" arrived="0" entered="1" left="0" laneChangedFrom="0" laneChangedTo="0"/>
        <edge id="w_t" sampledSeconds="120.65" traveltime="52.15" overlapTraveltime="53.21" density="64.72" laneDensity="21.57" occupancy="10.76" waitingTime="79.00" timeLoss="86.47" speed="3.60" speedRelative="0.26" departed="0" arrived="0" entered="0" left="1" laneChangedFrom="0" laneChangedTo="0"/>
    </interval>
    <interval begin="60.00" end="70.00" id="1">
        <edge id="e_t" sampledSeconds="138.70" traveltime="59.83" overlapTraveltime="61.08" density="74.41" laneDensity="24.80" occupancy="12.36" waitingTime="102.00" timeLoss="108.57" speed="3.13" speedRelative="0.23" departed="6" arrived="0" entered="0" left="1" laneChangedFrom="0" laneChangedTo="0"/>
        <edge id="n_t" sampledSeconds="50.92" traveltime="18.26" overlapTraveltime="19.34" density="27.32" laneDensity="9.11" occupancy="4.43" waitingTime="3.00" timeLoss="10.84" speed="9.89" speedRelative="0.71" departed="6" arrived="0" entered="0" left="3" laneChangedFrom="0" laneChangedTo="0"/>
        <edge id="s_t" sampledSeconds="50.33" traveltime="17.55" overlapTraveltime="18.74" density="27.00" laneDensity="9.00" occupancy="4.36" waitingTime="6.00" timeLoss="16.83" speed="10.21" speedRelative="0.74" departed="6" arrived="0" entered="0" left="3" laneChangedFrom="0" laneChangedTo="0"/>
        <edge id="t_e" sampledSeconds="18.71" traveltime="16.74" overlapTraveltime="17.19" density="10.04" laneDensity="3.35" occupancy="1.59" waitingTime="0.00" timeLoss="2.44" speed="11.13" speedRelative="0.80" departed="0" arrived="0" entered="3" left="0" laneChangedFrom="0" laneChangedTo="0"/>
        <edge id="t_n" sampledSeconds="64.35" traveltime="16.98" overlapTraveltime="17.42" density="34.52" laneDensity="11.51" occupancy="5.67" waitingTime="0.00" timeLoss="9.80" speed="10.98" speedRelative="0.79" departed="0" arrived="2" entered="1" left="0" laneChangedFrom="1" laneChangedTo="1"/>
        <edge id="t_s" sampledSeconds="52.37" traveltime="14.70" overlapTraveltime="15.05" density="28.10" laneDensity="9.37" occupancy="4.62" waitingTime="0.00" timeLoss="5.00" speed="12.71" speedRelative="0.92" departed="0" arrived="3" entered="1" left="0" laneChangedFrom="0" laneChangedTo="0"/>
        <edge id="t_w" sampledSeconds="20.89" traveltime="16.39" overlapTraveltime="16.81" density="11.20" laneDensity="3.73" occupancy="1.75" waitingTime="0.00" timeLoss="2.21" speed="11.38" speedRelative="0.82" departed="0" arrived="2" entered="3" left="0" laneChangedFrom="0" laneChangedTo="0"/>
        <edge id="w_t" sampledSeconds="138.44" traveltime="64.10" overlapTraveltime="65.36" density="74.27" laneDensity="24.76" occupancy="12.34" waitingTime="103.00" timeLoss="106.94" speed="2.93" speedRelative="0.21" departed="6" arrived="0" entered="0" left="1" laneChangedFrom="0" laneChangedTo="0"/>
    </interval>
    <interval begin="70.00" end="80.00" id="1">
        <edge id="e_t" sampledSeconds="182.95" traveltime="45.37" overlapTraveltime="46.45" density="98.15" laneDensity="32.72" occupancy="16.33" waitingTime="122.00" timeLoss="130.16" speed="4.12" speedRelative="0.30" departed="3" arrived="0" entered="0" left="1" laneChangedFrom="0" laneChangedTo="0"/>
        <edge id="n_t" sampledSeconds="85.50" traveltime="17.55" overlapTraveltime="18.16" density="45.87" laneDensity="15.29" occupancy="7.58" waitingTime="11.00" timeLoss="19.68" speed="10.54" speedRelative="0.76" departed="3" arrived="0" entered="0" left="2" laneChangedFrom="0" laneChangedTo="0"/>
        <edge id="s_t" sampledSeconds="78.65" traveltime="19.11" overlapTraveltime="19.71" density="42.19" laneDensity="14.06" occupancy="6.97" waitingTime="15.00" timeLoss="22.91" speed="9.71" speedRelative="0.70" departed="3" arrived="0" entered="0" left="2" laneChangedFrom="0" laneChangedTo="0"/>
        <edge id="t_e" sampledSeconds="37.55" traveltime="15.08" overlapTraveltime="15.49" density="20.14" laneDensity="6.71" occupancy="3.31" waitingTime="0.00" timeLoss="3.54" speed="12.36" speedRelative="0.89" departed="0" arrived="1" entered="1" left="0" laneChangedFrom="0" laneChangedTo="0"/>
        <edge id="t_n" sampledSeconds="34.69" traveltime="15.59" overlapTraveltime="15.97" density="18.61" laneDensity="6.20" occupancy="2.99" waitingTime="0.00" timeLoss="4.49" speed="11.99" speedRelative="0.86" departed="0" arrived="6" entered="1" left="0" laneChangedFrom="0" laneChangedTo="0"/>
        <edge id="t_s" sampledSeconds="20.51" traveltime="14.71" overlapTraveltime="15.08" density="11.00" laneDensity="3.67" occupancy="1.77" waitingTime="0.00" timeLoss="1.35" speed="12.69" speedRelative="0.91" departed="0" arrived="4" entered="1" left="0" laneChangedFrom="0" laneChangedTo="0"/>
        <edge id="t_w" sampledSeconds="35.56" traveltime="14.79" overlapTraveltime="15.20" density="19.08" laneDensity="6.36" occupancy="3.10" waitingTime="0.00" timeLoss="3.61" speed="12.59" speedRelative="0.91" departed="0" arrived="1" entered="2" left="0" laneChangedFrom="0" laneChangedTo="0"/>
        <edge id="w_t" sampledSeconds="186.60" traveltime="42.53" overlapTraveltime="43.62" density="100.11" laneDensity="33.37" occupancy="16.64" waitingTime="118.00" timeLoss="129.04" speed="4.39" speedRelative="0.32" departed="3" arrived="0" entered="0" left="1" laneChangedFrom="0" laneChangedTo="0"/>
    </interval>
    <interval begin="80.00" end="90.00" id="1">
        <edge id="e_t" sampledSeconds="194.20" traveltime="87.14" overlapTraveltime="88.11" density="104.19" laneDensity="34.73" occupancy="17.29" waitingTime="154.00" timeLoss="163.36" speed="2.17" speedRelative="0.16" departed="3" arrived="0" entered="0" left="2" laneChangedFrom="0" laneChangedTo="0"/>
        <edge id="n_t" sampledSeconds="80.38" traveltime="25.90" overlapTraveltime="26.69" density="43.12" laneDensity="14.37" occupancy="7.08" waitingTime="28.00" timeLoss="38.55" speed="7.17" speedRelative="0.52" departed="3" arrived="0" entered="0" left="3" laneChangedFrom="0" laneChangedTo="0"/>
        <edge id="s_t" sampledSeconds="82.99" traveltime="24.52" overlapTraveltime="25.27" density="44.52" laneDensity="14.84" occupancy="7.32" waitingTime="23.00" timeLoss="35.65" speed="7.57" speedRelative="0.55" departed="3" arrived="0" entered="0" left="3" laneChangedFrom="0" laneChangedTo="0"/>
        <edge id="t_e" sampledSeconds="31.47" traveltime="14.58" overlapTraveltime="14.93" density="16.88" laneDensity="5.63" occupancy="2.69" waitingTime="0.00" timeLoss="2.62" speed="12.82" speedRelative="0.92" departed="0" arrived="4" entered="3" left="0" laneChangedFrom="0" laneChangedTo="0"/>
        <edge id="t_n" sampledSeconds="16.37" traveltime="13.32" overlapTraveltime="13.65" density="8.78" laneDensity="2.93" occupancy="1.42" waitingTime="0.00" timeLoss="1.99" speed="14.02" speedRelative="1.01" departed="0" arrived="1" entered="1" left="0" laneChangedFrom="0" laneChangedTo="0"/>
        <edge id="t_s" sampledSeconds="15.48" traveltime="16.13" overlapTraveltime="16.56" density="8.30" laneDensity="2.77" occupancy="1.35" waitingTime="0.00" timeLoss="2.22" speed="11.56" speedRelative="0.83" departed="0" arrived="0" entered="2" left="0" laneChangedFrom="0" laneChangedTo="0"/>
        <edge id="t_w" sampledSeconds="36.77" traveltime="15.23" overlapTraveltime="15.60" density="19.73" laneDensity="6.58" occupancy="3.16" waitingTime="0.00" timeLoss="4.94" speed="12.27" speedRelative="0.88" departed="0" arrived="3" entered="3" left="0" laneChangedFrom="0" laneChangedTo="0"/>
        <edge id="w_t" sampledSeconds="195.28" traveltime="91.49" overlapTraveltime="92.44" density="104.76" laneDensity="34.92" occupancy="17.38" waitingTime="153.00" timeLoss="166.97" speed="2.07" speedRelative="0.15" departed="3" arrived="0" entered="0" left="2" laneChangedFrom="0" laneChangedTo="0"/>
    </interval>
    <interval begin="90.00" end="100.00" id="1">
        <edge id="e_t" sampledSeconds="205.97" traveltime="120.53" overlapTraveltime="122.32" density="110.50" laneDensity="36.83" occupancy="18.38" waitingTime="176.00" timeLoss="183.52" speed="1.56" speedRelative="0.11" departed="3" arrived="0" entered="0" left="1" laneChangedFrom="0" laneChangedTo="0"/>
        <edge id="n_t" sampledSeconds="76.99" traveltime="34.25" overlapTraveltime="35.01" density="41.30" laneDensity="13.77" occupancy="6.86" waitingTime="42.00" timeLoss="47.34" speed="5.47" speedRelative="0.39" departed="3" arrived="0" entered="0" left="1" laneChangedFrom="0" laneChangedTo="0"/>
        <edge id="s_t" sampledSeconds="76.96" traveltime="33.30" overlapTraveltime="34.17" density="41.29" laneDensity="13.76" occupancy="6.84" waitingTime="41.00" timeLoss="45.74" speed="5.60" speedRelative="0.40" departed="3" arrived="0" entered="0" left="1" laneChangedFrom="0" laneChangedTo="0"/>
        <edge id="t_e" sampledSeconds="42.90" traveltime="15.65" overlapTraveltime="16.08" density="23.02" laneDensity="7.67" occupancy="3.76" waitingTime="0.00" timeLoss="3.36" speed="11.90" speedRelative="0.86" departed="0" arrived="1" entered="2" left="0" laneChangedFrom="0" laneChangedTo="0"/>
        <edge id="t_n" sampledSeconds="16.85" traveltime="14.24" overlapTraveltime="14.56" density="9.04" laneDensity="3.01" occupancy="1.46" waitingTime="0.00" timeLoss="1.80" speed="13.15" speedRelative="0.95" departed="0" arrived="1" entered="1" left="0" laneChangedFrom="0" laneChangedTo="0"/>
        <edge id="t_s" sampledSeconds="25.40" traveltime="14.73" overlapTraveltime="15.12" density="13.63" laneDensity="4.54" occupancy="2.19" waitingTime="0.00" timeLoss="2.30" speed="12.66" speedRelative="0.91" departed="0" arrived="2" entered="1" left="0" laneChangedFrom="0" laneChangedTo="0"/>
        <edge id="t_w" sampledSeconds="45.49" traveltime="14.54" overlapTraveltime="14.92" density="24.40" laneDensity="8.13" occupancy="4.01" waitingTime="0.00" timeLoss="4.18" speed="12.83" speedRelative="0.92" departed="0" arrived="2" entered="1" left="0" laneChangedFrom="0" laneChangedTo="0"/>
        <edge id="w_t" sampledSeconds="204.90" traveltime="116.70" overlapTraveltime="118.46" density="109.93" laneDensity="36.64" occupancy="18.29" waitingTime="175.00" timeLoss="183.02" speed="1.62" speedRelative="0.12" departed="3" arrived="0" entered="0" left="1" laneChangedFrom="0" laneChangedTo="0"/>
    </interval>
    <interval begin="100.00" end="110.00" id="1">
        <edge id="e_t" sampledSeconds="220.00" traveltime="138.76" overlapTraveltime="142.48" density="118.03" laneDensity="39.34" occupancy="19.67" waitingTime="192.00" timeLoss="198.03" speed="1.34" speedRelative="0.10" departed="3" arrived="0" entered="0" left="0" laneChangedFrom="0" laneChangedTo="0"/>
        <edge id="n_t" sampledSeconds="82.01" traveltime="39.30" overlapTraveltime="40.05" density="44.00" laneDensity="14.67" occupancy="7.27" waitingTime="50.00" timeLoss="51.97" speed="4.78" speedRelative="0.34" departed="3" arrived="0" entered="0" left="2" laneChangedFrom="0" laneChangedTo="0"/>
        <edge id="s_t" sampledSeconds="83.36" traveltime="39.34" overlapTraveltime="40.15" density="44.72" laneDensity="14.91" occupancy="7.38" waitingTime="50.00" timeLoss="54.88" speed="4.77" speedRelative="0.34" departed="3" arrived="0" entered="0" left="2" laneChangedFrom="0" laneChangedTo="0"/>
        <edge id="t_e" sampledSeconds="37.82" traveltime="15.67" overlapTraveltime="16.08" density="20.29" laneDensity="6.76" occupancy="3.30" waitingTime="0.00" timeLoss="3.13" speed="11.90" speedRelative="0.86" departed="0" arrived="4" entered="2" left="0" laneChangedFrom="0" laneChangedTo="0"/>
        <edge id="t_n" sampledSeconds="15.43" traveltime="14.51" overlapTraveltime="14.91" density="8.28" laneDensity="2.76" occupancy="1.34" waitingTime="0.00" timeLoss="1.54" speed="12.84" speedRelative="0.92" departed="0" arrived="1" entered="1" left="0" laneChangedFrom="0" laneChangedTo="0"/>
        <edge id="t_s" sampledSeconds="15.51" traveltime="13.76" overlapTraveltime="14.16" density="8.32" laneDensity="2.77" occupancy="1.37" waitingTime="0.00" timeLoss="1.84" speed="13.52" speedRelative="0.97" departed="0" arrived="1" entered="0" left="0" laneChangedFrom="0" laneChangedTo="0"/>
        <edge id="t_w" sampledSeconds="28.32" traveltime="14.78" overlapTraveltime="15.11" density="15.19" laneDensity="5.06" occupancy="2.43" waitingTime="0.00" timeLoss="2.62" speed="12.66" speedRelative="0.91" departed="0" arrived="4" entered="2" left="0" laneChangedFrom="0" laneChangedTo="0"/>
        <edge id="w_t" sampledSeconds="220.00" traveltime="137.81" overlapTraveltime="141.51" density="118.03" laneDensity="39.34" occupancy="19.67" waitingTime="194.00" timeLoss="200.31" speed="1.35" speedRelative="0.10" departed="3" arrived="0" entered="0" left="0" laneChangedFrom="0" laneChangedTo="0"/>
    </interval>
    <interval begin="110.00" end="120.00" id="1">
        <edge id="e_t" sampledSeconds="243.08" traveltime="124.76" overlapTraveltime="126.77" density="130.41" laneDensity="43.47" occupancy="21.70" waitingTime="210.00" timeLoss="217.14" speed="1.51" speedRelative="0.11" departed="0" arrived="0" entered="0" left="1" laneChangedFrom="0" laneChangedTo="0"/>
        <edge id="n_t" sampledSeconds="96.30" traveltime="37.78" overlapTraveltime="38.57" density="51.67" laneDensity="17.22" occupancy="8.54" waitingTime="57.00" timeLoss="62.47" speed="4.96" speedRelative="0.36" departed="0" arrived="0" entered="0" left="2" laneChangedFrom="0" laneChangedTo="0"/>
        <edge id="s_t" sampledSeconds="96.29" traveltime="39.20" overlapTraveltime="40.01" density="51.66" laneDensity="17.22" occupancy="8.54" waitingTime="59.00" timeLoss="62.98" speed="4.78" speedRelative="0.34" departed="0" arrived="0" entered="0" left="2" laneChangedFrom="0" laneChangedTo="0"/>
        <edge id="t_e" sampledSeconds="25.45" traveltime="15.43" overlapTraveltime="15.80" density="13.66" laneDensity="4.55" occupancy="2.18" waitingTime="0.00" timeLoss="2.93" speed="12.12" speedRelative="0.87" departed="0" arrived="2" entered="2" left="0" laneChangedFrom="0" laneChangedTo="0"/>
        <edge id="t_n" sampledSeconds="11.29" traveltime="15.36" overlapTraveltime="15.71" density="6.06" laneDensity="2.02" occupancy="0.97" waitingTime="0.00" timeLoss="1.61" speed="12.18" speedRelative="0.88" departed="0" arrived="1" entered="1" left="0" laneChangedFrom="0" laneChangedTo="0"/>
        <edge id="t_s" sampledSeconds="9.82" traveltime="14.61" overlapTraveltime="14.88" density="5.27" laneDensity="1.76" occupancy="0.83" waitingTime="0.00" timeLoss="1.55" speed="12.86" speedRelative="0.93" departed="0" arrived="1" entered="1" left="0" laneChangedFrom="0" laneChangedTo="0"/>
        <edge id="t_w" sampledSeconds="28.18" traveltime="14.68" overlapTraveltime="15.05" density="15.12" laneDensity="5.04" occupancy="2.43" waitingTime="0.00" timeLoss="2.42" speed="12.72" speedRelative="0.92" departed="0" arrived="2" entered="2" left="0" laneChangedFrom="0" laneChangedTo="0"/>