<?xml version="1.0" encoding="UTF-8"?>

<!-- generated on 2025-06-24 16:54:40 by Eclipse SUMO libsumo Version 1.19.0
<configuration xmlns:xsi="http://www.w3.org/2001/XMLSchema-instance" xsi:noNamespaceSchemaLocation="http://sumo.dlr.de/xsd/libsumoConfiguration.xsd">

    <input>
        <net-file value="./nets/syc/1x1/Equal_entries_350_CT/85-15-Truck-Car/syc_4phases.net.xml"/>
        <route-files value="./nets/syc/1x1/Equal_entries_350_CT/85-15-Truck-Car/equal_entries_350_54_85-15-TC.rou.xml"/>
        <additional-files value="./nets/syc/1x1/Equal_entries_350_CT/85-15-Truck-Car/1x1_outputs.add.xml"/>
    </input>

    <output>
        <fcd-output value="./nets/syc/1x1/Equal_entries_350_CT/85-15-Truck-Car/output/fcd_output.xml"/>
        <tripinfo-output value="./nets/syc/1x1/Equal_entries_350_CT/85-15-Truck-Car/output/tripinfo.out.xml"/>
    </output>

    <time>
        <begin value="0"/>
        <end value="1000"/>
    </time>

    <processing>
        <time-to-teleport value="-1"/>
        <waiting-time-memory value="1000"/>
        <max-depart-delay value="-1"/>
    </processing>

    <random_number>
        <seed value="0"/>
    </random_number>

</configuration>
-->

<tripinfos xmlns:xsi="http://www.w3.org/2001/XMLSchema-instance" xsi:noNamespaceSchemaLocation="http://sumo.dlr.de/xsd/tripinfo_file.xsd">
    <tripinfo id="flow_en_truck.0" depart="0.00" departLane="e_t_0" departPos="5.10" departSpeed="16.43" departDelay="0.00" arrival="27.00" arrivalLane="t_n_0" arrivalPos="186.40" arrivalSpeed="15.71" duration="27.00" routeLength="376.73" waitingTime="0.00" waitingCount="0" stopTime="0.00" timeLoss="3.41" rerouteNo="0" devices="tripinfo_flow_en_truck.0 fcd_flow_en_truck.0" vType="truck" speedFactor="1.18" vaporized=""/>
    <tripinfo id="flow_se_truck.0" depart="0.00" departLane="s_t_0" departPos="5.10" departSpeed="15.63" departDelay="0.00" arrival="29.00" arrivalLane="t_e_0" arrivalPos="186.40" arrivalSpeed="15.51" duration="29.00" routeLength="376.73" waitingTime="0.00" waitingCount="0" stopTime="0.00" timeLoss="3.02" rerouteNo="0" devices="tripinfo_flow_se_truck.0 fcd_flow_se_truck.0" vType="truck" speedFactor="1.13" vaporized=""/>
    <tripinfo id="flow_ew_truck.0" depart="0.00" departLane="e_t_1" departPos="5.10" departSpeed="14.41" departDelay="0.00" arrival="29.00" arrivalLane="t_w_1" arrivalPos="186.40" arrivalSpeed="13.23" duration="29.00" routeLength="394.90" waitingTime="0.00" waitingCount="0" stopTime="0.00" timeLoss="1.58" rerouteNo="0" devices="tripinfo_flow_ew_truck.0 fcd_flow_ew_truck.0" vType="truck" speedFactor="1.04" vaporized=""/>
    <tripinfo id="flow_ws_truck.0" depart="0.00" departLane="w_t_0" departPos="5.10" departSpeed="15.38" departDelay="0.00" arrival="29.00" arrivalLane="t_s_0" arrivalPos="186.40" arrivalSpeed="14.32" duration="29.00" routeLength="376.73" waitingTime="0.00" waitingCount="0" stopTime="0.00" timeLoss="3.27" rerouteNo="0" devices="tripinfo_flow_ws_truck.0 fcd_flow_ws_truck.0" vType="truck" speedFactor="1.11" vaporized=""/>
    <tripinfo id="flow_nw_truck.0" depart="0.00" departLane="n_t_0" departPos="5.10" departSpeed="14.31" departDelay="0.00" arrival="31.00" arrivalLane="t_w_0" arrivalPos="186.40" arrivalSpeed="14.21" duration="31.00" routeLength="376.73" waitingTime="0.00" waitingCount="0" stopTime="0.00" timeLoss="3.67" rerouteNo="0" devices="tripinfo_flow_nw_truck.0 fcd_flow_nw_truck.0" vType="truck" speedFactor="1.03" vaporized=""/>
    <tripinfo id="flow_we_truck.0" depart="0.00" departLane="w_t_1" departPos="5.10" departSpeed="12.94" departDelay="0.00" arrival="33.00" arrivalLane="t_e_1" arrivalPos="186.40" arrivalSpeed="12.05" duration="33.00" routeLength="394.90" waitingTime="0.00" waitingCount="0" stopTime="0.00" timeLoss="1.74" rerouteNo="0" devices="tripinfo_flow_we_truck.0 fcd_flow_we_truck.0" vType="truck" speedFactor="0.93" vaporized=""/>
    <tripinfo id="flow_nw_car.0" depart="1.00" departLane="n_t_0" departPos="5.10" departSpeed="10.70" departDelay="1.00" arrival="34.00" arrivalLane="t_w_0" arrivalPos="186.40" arrivalSpeed="12.81" duration="33.00" routeLength="376.73" waitingTime="0.00" waitingCount="0" stopTime="0.00" timeLoss="4.94" rerouteNo="0" devices="tripinfo_flow_nw_car.0 fcd_flow_nw_car.0" vType="car" speedFactor="1.02" vaporized=""/>
    <tripinfo id="flow_se_car.0" depart="1.00" departLane="s_t_0" departPos="5.10" departSpeed="12.72" departDelay="1.00" arrival="34.00" arrivalLane="t_e_0" arrivalPos="186.40" arrivalSpeed="11.87" duration="33.00" routeLength="376.73" waitingTime="0.00" waitingCount="0" stopTime="0.00" timeLoss="3.22" rerouteNo="0" devices="tripinfo_flow_se_car.0 fcd_flow_se_car.0" vType="car" speedFactor="0.95" vaporized=""/>
    <tripinfo id="flow_ws_car.0" depart="1.00" departLane="w_t_0" departPos="5.10" departSpeed="13.04" departDelay="1.00" arrival="34.00" arrivalLane="t_s_0" arrivalPos="186.40" arrivalSpeed="12.77" duration="33.00" routeLength="376.73" waitingTime="0.00" waitingCount="0" stopTime="0.00" timeLoss="3.54" rerouteNo="0" devices="tripinfo_flow_ws_car.0 fcd_flow_ws_car.0" vType="car" speedFactor="0.94" vaporized=""/>
    <tripinfo id="flow_sw_truck.0" depart="0.00" departLane="s_t_2" departPos="5.10" departSpeed="14.64" departDelay="0.00" arrival="35.00" arrivalLane="t_w_2" arrivalPos="186.40" arrivalSpeed="13.54" duration="35.00" routeLength="392.21" waitingTime="0.00" waitingCount="0" stopTime="0.00" timeLoss="7.23" rerouteNo="0" devices="tripinfo_flow_sw_truck.0 fcd_flow_sw_truck.0" vType="truck" speedFactor="1.05" vaporized=""/>
    <tripinfo id="flow_ne_truck.0" depart="0.00" departLane="n_t_2" departPos="5.10" departSpeed="12.27" departDelay="0.00" arrival="36.00" arrivalLane="t_e_2" arrivalPos="186.40" arrivalSpeed="11.38" duration="36.00" routeLength="392.21" waitingTime="0.00" waitingCount="0" stopTime="0.00" timeLoss="2.82" rerouteNo="0" devices="tripinfo_flow_ne_truck.0 fcd_flow_ne_truck.0" vType="truck" speedFactor="0.88" vaporized=""/>
    <tripinfo id="flow_en_car.0" depart="1.00" departLane="e_t_0" departPos="5.10" departSpeed="12.30" departDelay="1.00" arrival="36.00" arrivalLane="t_n_0" arrivalPos="186.40" arrivalSpeed="11.60" duration="35.00" routeLength="376.73" waitingTime="0.00" waitingCount="0" stopTime="0.00" timeLoss="3.31" rerouteNo="0" devices="tripinfo_flow_en_car.0 fcd_flow_en_car.0" vType="car" speedFactor="0.89" vaporized=""/>
    <tripinfo id="flow_sw_car.0" depart="1.00" departLane="s_t_2" departPos="5.10" departSpeed="11.50" departDelay="1.00" arrival="37.00" arrivalLane="t_w_2" arrivalPos="186.40" arrivalSpeed="16.84" duration="36.00" routeLength="392.21" waitingTime="0.00" waitingCount="0" stopTime="0.00" timeLoss="12.41" rerouteNo="0" devices="tripinfo_flow_sw_car.0 fcd_flow_sw_car.0" vType="car" speedFactor="1.27" vaporized=""/>
    <tripinfo id="flow_ne_car.0" depart="1.00" departLane="n_t_2" departPos="5.10" departSpeed="9.38" departDelay="1.00" arrival="38.00" arrivalLane="t_e_2" arrivalPos="186.40" arrivalSpeed="15.67" duration="37.00" routeLength="392.21" waitingTime="0.00" waitingCount="0" stopTime="0.00" timeLoss="11.12" rerouteNo="0" devices="tripinfo_flow_ne_car.0 fcd_flow_ne_car.0" vType="car" speedFactor="1.16" vaporized=""/>
    <tripinfo id="flow_nw_truck.1" depart="13.00" departLane="n_t_0" departPos="5.10" departSpeed="15.08" departDelay="0.90" arrival="42.00" arrivalLane="t_w_0" arrivalPos="186.40" arrivalSpeed="15.05" duration="29.00" routeLength="376.73" waitingTime="0.00" waitingCount="0" stopTime="0.00" timeLoss="3.10" rerouteNo="0" devices="tripinfo_flow_nw_truck.1 fcd_flow_nw_truck.1" vType="truck" speedFactor="1.09" vaporized=""/>
    <tripinfo id="flow_se_truck.1" depart="13.00" departLane="s_t_0" departPos="5.10" departSpeed="14.63" departDelay="0.90" arrival="43.00" arrivalLane="t_e_0" arrivalPos="186.40" arrivalSpeed="13.43" duration="30.00" routeLength="376.73" waitingTime="0.00" waitingCount="0" stopTime="0.00" timeLoss="2.97" rerouteNo="0" devices="tripinfo_flow_se_truck.1 fcd_flow_se_truck.1" vType="truck" speedFactor="1.05" vaporized=""/>
    <tripinfo id="flow_ws_truck.1" depart="13.00" departLane="w_t_0" departPos="5.10" departSpeed="13.70" departDelay="0.90" arrival="44.00" arrivalLane="t_s_0" arrivalPos="186.40" arrivalSpeed="13.60" duration="31.00" routeLength="376.73" waitingTime="0.00" waitingCount="0" stopTime="0.00" timeLoss="2.85" rerouteNo="0" devices="tripinfo_flow_ws_truck.1 fcd_flow_ws_truck.1" vType="truck" speedFactor="0.99" vaporized=""/>
    <tripinfo id="flow_en_truck.1" depart="13.00" departLane="e_t_0" departPos="5.10" departSpeed="14.30" departDelay="0.90" arrival="44.00" arrivalLane="t_n_0" arrivalPos="186.40" arrivalSpeed="13.48" duration="31.00" routeLength="376.73" waitingTime="0.00" waitingCount="0" stopTime="0.00" timeLoss="3.75" rerouteNo="0" devices="tripinfo_flow_en_truck.1 fcd_flow_en_truck.1" vType="truck" speedFactor="1.03" vaporized=""/>
    <tripinfo id="flow_sw_truck.1" depart="13.00" departLane="s_t_2" departPos="5.10" departSpeed="14.38" departDelay="0.90" arrival="45.00" arrivalLane="t_w_2" arrivalPos="186.40" arrivalSpeed="13.82" duration="32.00" routeLength="392.21" waitingTime="0.00" waitingCount="0" stopTime="0.00" timeLoss="3.16" rerouteNo="0" devices="tripinfo_flow_sw_truck.1 fcd_flow_sw_truck.1" vType="truck" speedFactor="1.03" vaporized=""/>
    <tripinfo id="flow_ne_truck.1" depart="13.00" departLane="n_t_2" departPos="5.10" departSpeed="13.57" departDelay="0.90" arrival="47.00" arrivalLane="t_e_2" arrivalPos="186.40" arrivalSpeed="13.35" duration="34.00" routeLength="392.21" waitingTime="0.00" waitingCount="0" stopTime="0.00" timeLoss="3.71" rerouteNo="0" devices="tripinfo_flow_ne_truck.1 fcd_flow_ne_truck.1" vType="truck" speedFactor="0.98" vaporized=""/>
    <tripinfo id="flow_ws_truck.2" depart="25.00" departLane="w_t_0" departPos="5.10" departSpeed="16.41" departDelay="0.80" arrival="52.00" arrivalLane="t_s_0" arrivalPos="186.40" arrivalSpeed="15.74" duration="27.00" routeLength="376.73" waitingTime="0.00" waitingCount="0" stopTime="0.00" timeLoss="2.95" rerouteNo="0" devices="tripinfo_flow_ws_truck.2 fcd_flow_ws_truck.2" vType="truck" speedFactor="1.18" vaporized=""/>
    <tripinfo id="flow_se_truck.2" depart="25.00" departLane="s_t_0" departPos="5.10" departSpeed="14.00" departDelay="0.80" arrival="56.00" arrivalLane="t_e_0" arrivalPos="186.40" arrivalSpeed="13.50" duration="31.00" routeLength="376.73" waitingTime="0.00" waitingCount="0" stopTime="0.00" timeLoss="3.34" rerouteNo="0" devices="tripinfo_flow_se_truck.2 fcd_flow_se_truck.2" vType="truck" speedFactor="1.01" vaporized=""/>
    <tripinfo id="flow_ne_truck.2" depart="25.00" departLane="n_t_2" departPos="5.10" departSpeed="13.13" departDelay="0.80" arrival="58.00" arrivalLane="t_e_2" arrivalPos="186.40" arrivalSpeed="12.73" duration="33.00" routeLength="392.21" waitingTime="0.00" waitingCount="0" stopTime="0.00" timeLoss="2.62" rerouteNo="0" devices="tripinfo_flow_ne_truck.2 fcd_flow_ne_truck.2" vType="truck" speedFactor="0.94" vaporized=""/>
    <tripinfo id="flow_nw_truck.2" depart="25.00" departLane="n_t_0" departPos="5.10" departSpeed="12.24" departDelay="0.80" arrival="61.00" arrivalLane="t_w_0" arrivalPos="186.40" arrivalSpeed="12.03" duration="36.00" routeLength="376.73" waitingTime="0.00" waitingCount="0" stopTime="0.00" timeLoss="3.92" rerouteNo="0" devices="tripinfo_flow_nw_truck.2 fcd_flow_nw_truck.2" vType="truck" speedFactor="0.88" vaporized=""/>
    <tripinfo id="flow_sw_truck.2" depart="25.00" departLane="s_t_2" departPos="5.10" departSpeed="12.35" departDelay="0.80" arrival="61.00" arrivalLane="t_w_2" arrivalPos="186.40" arrivalSpeed="11.44" duration="36.00" routeLength="392.21" waitingTime="0.00" waitingCount="0" stopTime="0.00" timeLoss="3.02" rerouteNo="0" devices="tripinfo_flow_sw_truck.2 fcd_flow_sw_truck.2" vType="truck" speedFactor="0.89" vaporized=""/>
    <tripinfo id="flow_en_truck.2" depart="25.00" departLane="e_t_0" departPos="5.10" departSpeed="11.77" departDelay="0.80" arrival="62.00" arrivalLane="t_n_0" arrivalPos="186.40" arrivalSpeed="11.08" duration="37.00" routeLength="376.73" waitingTime="0.00" waitingCount="0" stopTime="0.00" timeLoss="3.58" rerouteNo="0" devices="tripinfo_flow_en_truck.2 fcd_flow_en_truck.2" vType="truck" speedFactor="0.85" vaporized=""/>
    <tripinfo id="flow_ns_truck.0" depart="0.00" departLane="n_t_1" departPos="5.10" departSpeed="15.51" departDelay="0.00" arrival="64.00" arrivalLane="t_s_1" arrivalPos="186.40" arrivalSpeed="14.78" duration="64.00" routeLength="394.90" waitingTime="31.00" waitingCount="1" stopTime="0.00" timeLoss="38.52" rerouteNo="0" devices="tripinfo_flow_ns_truck.0 fcd_flow_ns_truck.0" vType="truck" speedFactor="1.12" vaporized=""/>
    <tripinfo id="flow_ws_truck.3" depart="37.00" departLane="w_t_0" departPos="5.10" departSpeed="16.94" departDelay="0.70" arrival="64.00" arrivalLane="t_s_0" arrivalPos="186.40" arrivalSpeed="16.32" duration="27.00" routeLength="376.73" waitingTime="0.00" waitingCount="0" stopTime="0.00" timeLoss="3.40" rerouteNo="0" devices="tripinfo_flow_ws_truck.3 fcd_flow_ws_truck.3" vType="truck" speedFactor="1.22" vaporized=""/>
    <tripinfo id="flow_sn_truck.0" depart="0.00" departLane="s_t_1" departPos="5.10" departSpeed="13.13" departDelay="0.00" arrival="66.00" arrivalLane="t_n_1" arrivalPos="186.40" arrivalSpeed="11.83" duration="66.00" routeLength="394.90" waitingTime="29.00" waitingCount="1" stopTime="0.00" timeLoss="35.33" rerouteNo="0" devices="tripinfo_flow_sn_truck.0 fcd_flow_sn_truck.0" vType="truck" speedFactor="0.95" vaporized=""/>
    <tripinfo id="flow_ns_car.0" depart="1.00" departLane="n_t_1" departPos="5.10" departSpeed="13.29" departDelay="1.00" arrival="67.00" arrivalLane="t_s_1" arrivalPos="186.40" arrivalSpeed="14.13" duration="66.00" routeLength="394.90" waitingTime="30.00" waitingCount="1" stopTime="0.00" timeLoss="38.51" rerouteNo="0" devices="tripinfo_flow_ns_car.0 fcd_flow_ns_car.0" vType="car" speedFactor="1.05" vaporized=""/>
    <tripinfo id="flow_ns_truck.1" depart="13.00" departLane="n_t_1" departPos="5.10" departSpeed="13.07" departDelay="0.90" arrival="70.00" arrivalLane="t_s_1" arrivalPos="186.40" arrivalSpeed="11.83" duration="57.00" routeLength="394.90" waitingTime="18.00" waitingCount="1" stopTime="0.00" timeLoss="26.68" rerouteNo="0" devices="tripinfo_flow_ns_truck.1 fcd_flow_ns_truck.1" vType="truck" speedFactor="0.94" vaporized=""/>
    <tripinfo id="flow_en_truck.3" depart="37.00" departLane="e_t_0" departPos="5.10" departSpeed="13.14" departDelay="0.70" arrival="70.00" arrivalLane="t_n_0" arrivalPos="186.40" arrivalSpeed="12.33" duration="33.00" routeLength="376.73" waitingTime="0.00" waitingCount="0" stopTime="0.00" timeLoss="3.36" rerouteNo="0" devices="tripinfo_flow_en_truck.3 fcd_flow_en_truck.3" vType="truck" speedFactor="0.95" vaporized=""/>
    <tripinfo id="flow_sn_car.0" depart="1.00" departLane="s_t_1" departPos="5.10" departSpeed="10.50" departDelay="1.00" arrival="72.00" arrivalLane="t_n_1" arrivalPos="186.40" arrivalSpeed="9.83" duration="71.00" routeLength="394.90" waitingTime="26.00" waitingCount="1" stopTime="0.00" timeLoss="33.68" rerouteNo="0" devices="tripinfo_flow_sn_car.0 fcd_flow_sn_car.0" vType="car" speedFactor="0.76" vaporized=""/>
    <tripinfo id="flow_ns_truck.2" depart="25.00" departLane="n_t_1" departPos="5.10" departSpeed="14.59" departDelay="0.80" arrival="72.00" arrivalLane="t_s_1" arrivalPos="186.40" arrivalSpeed="13.97" duration="47.00" routeLength="394.90" waitingTime="8.00" waitingCount="1" stopTime="0.00" timeLoss="19.42" rerouteNo="0" devices="tripinfo_flow_ns_truck.2 fcd_flow_ns_truck.2" vType="truck" speedFactor="1.05" vaporized=""/>
    <tripinfo id="flow_nw_truck.3" depart="37.00" departLane="n_t_0" departPos="5.10" departSpeed="12.56" departDelay="0.70" arrival="72.00" arrivalLane="t_w_0" arrivalPos="186.40" arrivalSpeed="11.65" duration="35.00" routeLength="376.73" waitingTime="0.00" waitingCount="0" stopTime="0.00" timeLoss="3.61" rerouteNo="0" devices="tripinfo_flow_nw_truck.3 fcd_flow_nw_truck.3" vType="truck" speedFactor="0.90" vaporized=""/>
    <tripinfo id="flow_se_truck.3" depart="37.00" departLane="s_t_0" departPos="5.10" departSpeed="12.26" departDelay="0.70" arrival="72.00" arrivalLane="t_e_0" arrivalPos="186.40" arrivalSpeed="11.73" duration="35.00" routeLength="376.73" waitingTime="0.00" waitingCount="0" stopTime="0.00" timeLoss="3.34" rerouteNo="0" devices="tripinfo_flow_se_truck.3 fcd_flow_se_truck.3" vType="truck" speedFactor="0.88" vaporized=""/>
    <tripinfo id="flow_sn_truck.1" depart="13.00" departLane="s_t_1" departPos="5.10" departSpeed="14.17" departDelay="0.90" arrival="74.00" arrivalLane="t_n_1" arrivalPos="186.40" arrivalSpeed="13.49" duration="61.00" routeLength="394.90" waitingTime="20.00" waitingCount="1" stopTime="0.00" timeLoss="32.60" rerouteNo="0" devices="tripinfo_flow_sn_truck.1 fcd_flow_sn_truck.1" vType="truck" speedFactor="1.02" vaporized=""/>
    <tripinfo id="flow_sn_truck.3" depart="37.00" departLane="s_t_1" departPos="5.10" departSpeed="15.43" departDelay="0.70" arrival="74.00" arrivalLane="t_n_2" arrivalPos="186.40" arrivalSpeed="15.19" duration="37.00" routeLength="394.90" waitingTime="0.00" waitingCount="0" stopTime="0.00" timeLoss="10.68" rerouteNo="0" devices="tripinfo_flow_sn_truck.3 fcd_flow_sn_truck.3" vType="truck" speedFactor="1.11" vaporized=""/>
    <tripinfo id="flow_ns_truck.3" depart="37.00" departLane="n_t_1" departPos="5.10" departSpeed="12.01" departDelay="0.70" arrival="75.00" arrivalLane="t_s_1" arrivalPos="186.40" arrivalSpeed="11.32" duration="38.00" routeLength="394.90" waitingTime="0.00" waitingCount="0" stopTime="0.00" timeLoss="4.90" rerouteNo="0" devices="tripinfo_flow_ns_truck.3 fcd_flow_ns_truck.3" vType="truck" speedFactor="0.86" vaporized=""/>
    <tripinfo id="flow_sn_truck.2" depart="25.00" departLane="s_t_1" departPos="5.10" departSpeed="11.68" departDelay="0.80" arrival="76.00" arrivalLane="t_n_1" arrivalPos="186.40" arrivalSpeed="10.51" duration="51.00" routeLength="394.90" waitingTime="7.00" waitingCount="1" stopTime="0.00" timeLoss="16.76" rerouteNo="0" devices="tripinfo_flow_sn_truck.2 fcd_flow_sn_truck.2" vType="truck" speedFactor="0.84" vaporized=""/>
    <tripinfo id="flow_ws_truck.4" depart="49.00" departLane="w_t_0" departPos="5.10" departSpeed="14.34" departDelay="0.60" arrival="79.00" arrivalLane="t_s_0" arrivalPos="186.40" arrivalSpeed="14.22" duration="30.00" routeLength="376.73" waitingTime="0.00" waitingCount="0" stopTime="0.00" timeLoss="2.49" rerouteNo="0" devices="tripinfo_flow_ws_truck.4 fcd_flow_ws_truck.4" vType="truck" speedFactor="1.03" vaporized=""/>
    <tripinfo id="flow_en_truck.4" depart="49.00" departLane="e_t_0" departPos="5.10" departSpeed="14.53" departDelay="0.60" arrival="79.00" arrivalLane="t_n_0" arrivalPos="186.40" arrivalSpeed="14.31" duration="30.00" routeLength="376.73" waitingTime="0.00" waitingCount="0" stopTime="0.00" timeLoss="2.97" rerouteNo="0" devices="tripinfo_flow_en_truck.4 fcd_flow_en_truck.4" vType="truck" speedFactor="1.05" vaporized=""/>
    <tripinfo id="flow_se_truck.4" depart="49.00" departLane="s_t_0" departPos="5.10" departSpeed="14.16" departDelay="0.60" arrival="80.00" arrivalLane="t_e_0" arrivalPos="186.40" arrivalSpeed="13.61" duration="31.00" routeLength="376.73" waitingTime="0.00" waitingCount="0" stopTime="0.00" timeLoss="3.47" rerouteNo="0" devices="tripinfo_flow_se_truck.4 fcd_flow_se_truck.4" vType="truck" speedFactor="1.02" vaporized=""/>
    <tripinfo id="flow_sw_truck.3" depart="37.00" departLane="s_t_2" departPos="5.10" departSpeed="13.23" departDelay="0.70" arrival="81.00" arrivalLane="t_w_2" arrivalPos="186.40" arrivalSpeed="12.62" duration="44.00" routeLength="392.21" waitingTime="7.00" waitingCount="1" stopTime="0.00" timeLoss="13.78" rerouteNo="0" devices="tripinfo_flow_sw_truck.3 fcd_flow_sw_truck.3" vType="truck" speedFactor="0.95" vaporized=""/>
    <tripinfo id="flow_ne_truck.3" depart="37.00" departLane="n_t_2" departPos="5.10" departSpeed="12.88" departDelay="0.70" arrival="82.00" arrivalLane="t_e_2" arrivalPos="186.40" arrivalSpeed="12.70" duration="45.00" routeLength="392.21" waitingTime="7.00" waitingCount="1" stopTime="0.00" timeLoss="13.24" rerouteNo="0" devices="tripinfo_flow_ne_truck.3 fcd_flow_ne_truck.3" vType="truck" speedFactor="0.93" vaporized=""/>
    <tripinfo id="flow_nw_truck.4" depart="49.00" departLane="n_t_0" departPos="5.10" departSpeed="12.89" departDelay="0.60" arrival="82.00" arrivalLane="t_w_0" arrivalPos="186.40" arrivalSpeed="12.22" duration="33.00" routeLength="376.73" waitingTime="0.00" waitingCount="0" stopTime="0.00" timeLoss="2.89" rerouteNo="0" devices="tripinfo_flow_nw_truck.4 fcd_flow_nw_truck.4" vType="truck" speedFactor="0.93" vaporized=""/>
    <tripinfo id="flow_ne_truck.4" depart="49.00" departLane="n_t_2" departPos="5.10" departSpeed="13.40" departDelay="0.60" arrival="83.00" arrivalLane="t_e_2" arrivalPos="186.40" arrivalSpeed="12.74" duration="34.00" routeLength="392.21" waitingTime="0.00" waitingCount="0" stopTime="0.00" timeLoss="4.05" rerouteNo="0" devices="tripinfo_flow_ne_truck.4 fcd_flow_ne_truck.4" vType="truck" speedFactor="0.96" vaporized=""/>
    <tripinfo id="flow_sw_truck.4" depart="49.00" departLane="s_t_2" departPos="5.10" departSpeed="16.39" departDelay="0.60" arrival="83.00" arrivalLane="t_w_2" arrivalPos="186.40" arrivalSpeed="15.71" duration="34.00" routeLength="392.21" waitingTime="0.00" waitingCount="0" stopTime="0.00" timeLoss="8.99" rerouteNo="0" devices="tripinfo_flow_sw_truck.4 fcd_flow_sw_truck.4" vType="truck" speedFactor="1.18" vaporized=""/>
    <tripinfo id="flow_se_truck.5" depart="61.00" departLane="s_t_0" departPos="5.10" departSpeed="16.43" departDelay="0.50" arrival="88.00" arrivalLane="t_e_0" arrivalPos="186.40" arrivalSpeed="15.94" duration="27.00" routeLength="376.73" waitingTime="0.00" waitingCount="0" stopTime="0.00" timeLoss="3.37" rerouteNo="0" devices="tripinfo_flow_se_truck.5 fcd_flow_se_truck.5" vType="truck" speedFactor="1.18" vaporized=""/>
    <tripinfo id="flow_en_truck.5" depart="61.00" departLane="e_t_0" departPos="5.10" departSpeed="15.80" departDelay="0.50" arrival="89.00" arrivalLane="t_n_0" arrivalPos="186.40" arrivalSpeed="15.24" duration="28.00" routeLength="376.73" waitingTime="0.00" waitingCount="0" stopTime="0.00" timeLoss="3.08" rerouteNo="0" devices="tripinfo_flow_en_truck.5 fcd_flow_en_truck.5" vType="truck" speedFactor="1.14" vaporized=""/>
    <tripinfo id="flow_sw_truck.5" depart="61.00" departLane="s_t_2" departPos="5.10" departSpeed="15.41" departDelay="0.50" arrival="90.00" arrivalLane="t_w_2" arrivalPos="186.40" arrivalSpeed="15.25" duration="29.00" routeLength="392.21" waitingTime="0.00" waitingCount="0" stopTime="0.00" timeLoss="2.78" rerouteNo="0" devices="tripinfo_flow_sw_truck.5 fcd_flow_sw_truck.5" vType="truck" speedFactor="1.11" vaporized=""/>
    <tripinfo id="flow_ws_truck.5" depart="61.00" departLane="w_t_0" departPos="5.10" departSpeed="12.77" departDelay="0.50" arrival="95.00" arrivalLane="t_s_0" arrivalPos="186.40" arrivalSpeed="11.63" duration="34.00" routeLength="376.73" waitingTime="0.00" waitingCount="0" stopTime="0.00" timeLoss="3.30" rerouteNo="0" devices="tripinfo_flow_ws_truck.5 fcd_flow_ws_truck.5" vType="truck" speedFactor="0.92" vaporized=""/>
    <tripinfo id="flow_nw_truck.5" depart="61.00" departLane="n_t_0" departPos="5.10" departSpeed="12.63" departDelay="0.50" arrival="96.00" arrivalLane="t_w_0" arrivalPos="186.40" arrivalSpeed="12.03" duration="35.00" routeLength="376.73" waitingTime="0.00" waitingCount="0" stopTime="0.00" timeLoss="3.38" rerouteNo="0" devices="tripinfo_flow_nw_truck.5 fcd_flow_nw_truck.5" vType="truck" speedFactor="0.91" vaporized=""/>
    <tripinfo id="flow_en_car.1" depart="69.00" departLane="e_t_0" departPos="5.10" departSpeed="16.23" departDelay="0.43" arrival="96.00" arrivalLane="t_n_0" arrivalPos="186.40" arrivalSpeed="16.08" duration="27.00" routeLength="376.73" waitingTime="0.00" waitingCount="0" stopTime="0.00" timeLoss="3.01" rerouteNo="0" devices="tripinfo_flow_en_car.1 fcd_flow_en_car.1" vType="car" speedFactor="1.17" vaporized=""/>
    <tripinfo id="flow_ne_truck.5" depart="61.00" departLane="n_t_2" departPos="5.10" departSpeed="12.20" departDelay="0.50" arrival="97.00" arrivalLane="t_e_2" arrivalPos="186.40" arrivalSpeed="11.01" duration="36.00" routeLength="392.21" waitingTime="0.00" waitingCount="0" stopTime="0.00" timeLoss="2.90" rerouteNo="0" devices="tripinfo_flow_ne_truck.5 fcd_flow_ne_truck.5" vType="truck" speedFactor="0.88" vaporized=""/>
    <tripinfo id="flow_ws_car.1" depart="69.00" departLane="w_t_0" departPos="5.10" departSpeed="14.94" departDelay="0.43" arrival="98.00" arrivalLane="t_s_0" arrivalPos="186.40" arrivalSpeed="14.10" duration="29.00" routeLength="376.73" waitingTime="0.00" waitingCount="0" stopTime="0.00" timeLoss="2.93" rerouteNo="0" devices="tripinfo_flow_ws_car.1 fcd_flow_ws_car.1" vType="car" speedFactor="1.08" vaporized=""/>
    <tripinfo id="flow_ne_car.1" depart="69.00" departLane="n_t_2" departPos="5.10" departSpeed="14.31" departDelay="0.43" arrival="100.00" arrivalLane="t_e_2" arrivalPos="186.40" arrivalSpeed="13.24" duration="31.00" routeLength="392.21" waitingTime="0.00" waitingCount="0" stopTime="0.00" timeLoss="3.07" rerouteNo="0" devices="tripinfo_flow_ne_car.1 fcd_flow_ne_car.1" vType="car" speedFactor="1.03" vaporized=""/>
    <tripinfo id="flow_nw_car.1" depart="69.00" departLane="n_t_0" departPos="5.10" departSpeed="13.56" departDelay="0.43" arrival="101.00" arrivalLane="t_w_0" arrivalPos="186.40" arrivalSpeed="12.99" duration="32.00" routeLength="376.73" waitingTime="0.00" waitingCount="0" stopTime="0.00" timeLoss="2.94" rerouteNo="0" devices="tripinfo_flow_nw_car.1 fcd_flow_nw_car.1" vType="car" speedFactor="0.98" vaporized=""/>
    <tripinfo id="flow_sw_car.1" depart="69.00" departLane="s_t_2" departPos="5.10" departSpeed="14.38" departDelay="0.43" arrival="101.00" arrivalLane="t_w_2" arrivalPos="186.40" arrivalSpeed="13.78" duration="32.00" routeLength="392.21" waitingTime="0.00" waitingCount="0" stopTime="0.00" timeLoss="3.25" rerouteNo="0" devices="tripinfo_flow_sw_car.1 fcd_flow_sw_car.1" vType="car" speedFactor="1.04" vaporized=""/>
    <tripinfo id="flow_se_car.1" depart="69.00" departLane="s_t_0" departPos="5.10" departSpeed="12.83" departDelay="0.43" arrival="102.00" arrivalLane="t_e_0" arrivalPos="186.40" arrivalSpeed="12.22" duration="33.00" routeLength="376.73" waitingTime="0.00" waitingCount="0" stopTime="0.00" timeLoss="3.04" rerouteNo="0" devices="tripinfo_flow_se_car.1 fcd_flow_se_car.1" vType="car" speedFactor="0.92" vaporized=""/>
    <tripinfo id="flow_nw_truck.6" depart="73.00" departLane="n_t_0" departPos="5.10" departSpeed="16.17" departDelay="0.39" arrival="103.00" arrivalLane="t_w_0" arrivalPos="186.40" arrivalSpeed="15.37" duration="30.00" routeLength="376.73" waitingTime="0.00" waitingCount="0" stopTime="0.00" timeLoss="5.60" rerouteNo="0" devices="tripinfo_flow_nw_truck.6 fcd_flow_nw_truck.6" vType="truck" speedFactor="1.16" vaporized=""/>
    <tripinfo id="flow_ws_truck.6" depart="73.00" departLane="w_t_0" departPos="5.10" departSpeed="13.63" departDelay="0.39" arrival="105.00" arrivalLane="t_s_0" arrivalPos="186.40" arrivalSpeed="12.53" duration="32.00" routeLength="376.73" waitingTime="0.00" waitingCount="0" stopTime="0.00" timeLoss="3.09" rerouteNo="0" devices="tripinfo_flow_ws_truck.6 fcd_flow_ws_truck.6" vType="truck" speedFactor="0.98" vaporized=""/>
    <tripinfo id="flow_en_truck.6" depart="73.00" departLane="e_t_0" departPos="5.10" departSpeed="13.51" departDelay="0.39" arrival="105.00" arrivalLane="t_n_0" arrivalPos="186.40" arrivalSpeed="12.66" duration="32.00" routeLength="376.73" waitingTime="0.00" waitingCount="0" stopTime="0.00" timeLoss="2.89" rerouteNo="0" devices="tripinfo_flow_en_truck.6 fcd_flow_en_truck.6" vType="truck" speedFactor="0.97" vaporized=""/>
    <tripinfo id="flow_sw_truck.6" depart="73.00" departLane="s_t_2" departPos="5.10" departSpeed="13.36" departDelay="0.39" arrival="106.00" arrivalLane="t_w_2" arrivalPos="186.40" arrivalSpeed="13.23" duration="33.00" routeLength="392.21" waitingTime="0.00" waitingCount="0" stopTime="0.00" timeLoss="2.96" rerouteNo="0" devices="tripinfo_flow_sw_truck.6 fcd_flow_sw_truck.6" vType="truck" speedFactor="0.96" vaporized=""/>
    <tripinfo id="flow_se_truck.6" depart="73.00" departLane="s_t_0" departPos="5.10" departSpeed="12.52" departDelay="0.39" arrival="108.00" arrivalLane="t_e_0" arrivalPos="186.40" arrivalSpeed="12.28" duration="35.00" routeLength="376.73" waitingTime="0.00" waitingCount="0" stopTime="0.00" timeLoss="3.89" rerouteNo="0" devices="tripinfo_flow_se_truck.6 fcd_flow_se_truck.6" vType="truck" speedFactor="0.90" vaporized=""/>
    <tripinfo id="flow_ne_truck.6" depart="73.00" departLane="n_t_2" departPos="5.10" departSpeed="12.20" departDelay="0.39" arrival="109.00" arrivalLane="t_e_2" arrivalPos="186.40" arrivalSpeed="11.30" duration="36.00" routeLength="392.21" waitingTime="0.00" waitingCount="0" stopTime="0.00" timeLoss="2.90" rerouteNo="0" devices="tripinfo_flow_ne_truck.6 fcd_flow_ne_truck.6" vType="truck" speedFactor="0.88" vaporized=""/>
    <tripinfo id="flow_ws_truck.7" depart="85.00" departLane="w_t_0" departPos="5.10" departSpeed="16.39" departDelay="0.29" arrival="112.00" arrivalLane="t_s_0" arrivalPos="186.40" arrivalSpeed="16.30" duration="27.00" routeLength="376.73" waitingTime="0.00" waitingCount="0" stopTime="0.00" timeLoss="3.28" rerouteNo="0" devices="tripinfo_flow_ws_truck.7 fcd_flow_ws_truck.7" vType="truck" speedFactor="1.18" vaporized=""/>