<?xml version="1.0" encoding="UTF-8"?>

<!-- generated on 2024-05-18 15:18:58 by Eclipse SUMO libsumo Version 1.19.0
<configuration xmlns:xsi="http://www.w3.org/2001/XMLSchema-instance" xsi:noNamespaceSchemaLocation="http://sumo.dlr.de/xsd/libsumoConfiguration.xsd">

    <input>
        <net-file value="nets/syc/1x1/Low_heavy/syc_4phases.net.xml"/>
        <route-files value="nets/syc/1x1/Low_heavy/low_heavy.rou.xml"/>
        <additional-files value="nets/syc/1x1/Low_heavy/1x1_outputs.add.xml"/>
    </input>

    <output>
        <fcd-output value="nets/syc/1x1/Low_heavy/output/fcd_output.xml"/>
        <tripinfo-output value="nets/syc/1x1/Low_heavy/output/tripinfo.out.xml"/>
    </output>

    <time>
        <begin value="0"/>
        <end value="1000"/>
    </time>

    <processing>
        <time-to-teleport value="-1"/>
        <waiting-time-memory value="1000"/>
        <max-depart-delay value="-1"/>
    </processing>

    <random_number>
        <seed value="0"/>
    </random_number>

</configuration>
-->

<meandata xmlns:xsi="http://www.w3.org/2001/XMLSchema-instance" xsi:noNamespaceSchemaLocation="http://sumo.dlr.de/xsd/meandata_file.xsd">
    <interval begin="0.00" end="10.00" id="1">
        <edge id="e_t" sampledSeconds="27.00" traveltime="15.42" overlapTraveltime="15.83" density="14.48" laneDensity="4.83" occupancy="2.41" waitingTime="0.00" timeLoss="1.56" speed="12.09" speedRelative="0.87" departed="3" arrived="0" entered="0" left="0" laneChangedFrom="0" laneChangedTo="0"/>
        <edge id="n_t" sampledSeconds="30.00" traveltime="13.21" overlapTraveltime="13.57" density="16.09" laneDensity="5.36" occupancy="2.68" waitingTime="0.00" timeLoss="1.19" speed="14.11" speedRelative="1.02" departed="6" arrived="0" entered="0" left="0" laneChangedFrom="0" laneChangedTo="0"/>
        <edge id="s_t" sampledSeconds="30.00" traveltime="13.99" overlapTraveltime="14.36" density="16.09" laneDensity="5.36" occupancy="2.68" waitingTime="0.00" timeLoss="1.50" speed="13.33" speedRelative="0.96" departed="6" arrived="0" entered="0" left="0" laneChangedFrom="0" laneChangedTo="0"/>
        <edge id="t_e" sampledSeconds="0.00" departed="0" arrived="0" entered="0" left="0" laneChangedFrom="0" laneChangedTo="0"/>
        <edge id="t_n" sampledSeconds="0.00" departed="0" arrived="0" entered="0" left="0" laneChangedFrom="0" laneChangedTo="0"/>
        <edge id="t_s" sampledSeconds="0.00" departed="0" arrived="0" entered="0" left="0" laneChangedFrom="0" laneChangedTo="0"/>
        <edge id="t_w" sampledSeconds="0.00" departed="0" arrived="0" entered="0" left="0" laneChangedFrom="0" laneChangedTo="0"/>
        <edge id="w_t" sampledSeconds="27.00" traveltime="12.50" overlapTraveltime="12.83" density="14.48" laneDensity="4.83" occupancy="2.41" waitingTime="0.00" timeLoss="0.98" speed="14.91" speedRelative="1.07" departed="3" arrived="0" entered="0" left="0" laneChangedFrom="0" laneChangedTo="0"/>
    </interval>
    <interval begin="10.00" end="20.00" id="1">
        <edge id="e_t" sampledSeconds="25.77" traveltime="20.39" overlapTraveltime="21.92" density="13.83" laneDensity="4.61" occupancy="2.21" waitingTime="1.00" timeLoss="6.89" speed="8.73" speedRelative="0.63" departed="0" arrived="0" entered="0" left="2" laneChangedFrom="0" laneChangedTo="0"/>
        <edge id="n_t" sampledSeconds="67.07" traveltime="17.22" overlapTraveltime="17.76" density="35.98" laneDensity="11.99" occupancy="5.96" waitingTime="7.00" timeLoss="15.64" speed="10.78" speedRelative="0.78" departed="3" arrived="0" entered="0" left="1" laneChangedFrom="0" laneChangedTo="0"/>
        <edge id="s_t" sampledSeconds="65.97" traveltime="17.62" overlapTraveltime="18.15" density="35.39" laneDensity="11.80" occupancy="5.87" waitingTime="5.00" timeLoss="12.23" speed="10.54" speedRelative="0.76" departed="3" arrived="0" entered="0" left="1" laneChangedFrom="0" laneChangedTo="0"/>
        <edge id="t_e" sampledSeconds="10.58" traveltime="13.92" overlapTraveltime="14.29" density="5.68" laneDensity="1.89" occupancy="0.90" waitingTime="0.00" timeLoss="1.62" speed="13.39" speedRelative="0.96" departed="0" arrived="0" entered="2" left="0" laneChangedFrom="0" laneChangedTo="0"/>
        <edge id="t_n" sampledSeconds="2.44" traveltime="25.01" overlapTraveltime="25.68" density="1.31" laneDensity="0.44" occupancy="0.18" waitingTime="0.00" timeLoss="1.06" speed="7.45" speedRelative="0.54" departed="0" arrived="0" entered="1" left="0" laneChangedFrom="0" laneChangedTo="0"/>
        <edge id="t_s" sampledSeconds="2.14" traveltime="20.78" overlapTraveltime="21.34" density="1.15" laneDensity="0.38" occupancy="0.16" waitingTime="0.00" timeLoss="0.68" speed="8.97" speedRelative="0.65" departed="0" arrived="0" entered="1" left="0" laneChangedFrom="0" laneChangedTo="0"/>
        <edge id="t_w" sampledSeconds="4.27" traveltime="18.13" overlapTraveltime="18.61" density="2.29" laneDensity="0.76" occupancy="0.35" waitingTime="0.00" timeLoss="1.25" speed="10.28" speedRelative="0.74" departed="0" arrived="0" entered="1" left="0" laneChangedFrom="0" laneChangedTo="0"/>
        <edge id="w_t" sampledSeconds="19.57" traveltime="22.22" overlapTraveltime="23.98" density="10.50" laneDensity="3.50" occupancy="1.64" waitingTime="2.00" timeLoss="8.36" speed="7.98" speedRelative="0.57" departed="0" arrived="0" entered="0" left="3" laneChangedFrom="0" laneChangedTo="0"/>
    </interval>
    <interval begin="20.00" end="30.00" id="1">
        <edge id="e_t" sampledSeconds="19.00" traveltime="27.64" overlapTraveltime="28.38" density="10.19" laneDensity="3.40" occupancy="1.70" waitingTime="8.00" timeLoss="10.28" speed="6.75" speedRelative="0.49" departed="3" arrived="0" entered="0" left="0" laneChangedFrom="0" laneChangedTo="0"/>
        <edge id="n_t" sampledSeconds="95.50" traveltime="24.77" overlapTraveltime="25.50" density="51.23" laneDensity="17.08" occupancy="8.50" waitingTime="32.00" timeLoss="44.34" speed="7.51" speedRelative="0.54" departed="6" arrived="0" entered="0" left="1" laneChangedFrom="0" laneChangedTo="0"/>
        <edge id="s_t" sampledSeconds="101.00" traveltime="25.60" overlapTraveltime="26.44" density="54.18" laneDensity="18.06" occupancy="8.99" waitingTime="31.00" timeLoss="42.77" speed="7.24" speedRelative="0.52" departed="6" arrived="0" entered="0" left="1" laneChangedFrom="0" laneChangedTo="0"/>
        <edge id="t_e" sampledSeconds="15.67" traveltime="12.22" overlapTraveltime="12.55" density="8.41" laneDensity="2.80" occupancy="1.38" waitingTime="0.00" timeLoss="0.59" speed="15.26" speedRelative="1.10" departed="0" arrived="2" entered="0" left="0" laneChangedFrom="0" laneChangedTo="0"/>
        <edge id="t_n" sampledSeconds="18.64" traveltime="13.43" overlapTraveltime="13.79" density="10.00" laneDensity="3.33" occupancy="1.65" waitingTime="0.00" timeLoss="1.57" speed="13.88" speedRelative="1.00" departed="0" arrived="0" entered="1" left="0" laneChangedFrom="0" laneChangedTo="0"/>
        <edge id="t_s" sampledSeconds="18.58" traveltime="14.67" overlapTraveltime="15.06" density="9.97" laneDensity="3.32" occupancy="1.64" waitingTime="0.00" timeLoss="1.49" speed="12.71" speedRelative="0.91" departed="0" arrived="0" entered="1" left="0" laneChangedFrom="0" laneChangedTo="0"/>
        <edge id="t_w" sampledSeconds="14.78" traveltime="15.15" overlapTraveltime="15.55" density="7.93" laneDensity="2.64" occupancy="1.28" waitingTime="0.00" timeLoss="2.10" speed="12.31" speedRelative="0.89" departed="0" arrived="0" entered="1" left="0" laneChangedFrom="0" laneChangedTo="0"/>
        <edge id="w_t" sampledSeconds="9.00" traveltime="13.43" overlapTraveltime="13.79" density="4.83" laneDensity="1.61" occupancy="0.80" waitingTime="0.00" timeLoss="0.43" speed="13.88" speedRelative="1.00" departed="3" arrived="0" entered="0" left="0" laneChangedFrom="0" laneChangedTo="0"/>
    </interval>
    <interval begin="30.00" end="40.00" id="1">
        <edge id="e_t" sampledSeconds="40.00" traveltime="19.83" overlapTraveltime="20.42" density="21.46" laneDensity="7.15" occupancy="3.56" waitingTime="10.00" timeLoss="13.73" speed="9.37" speedRelative="0.67" departed="0" arrived="0" entered="0" left="1" laneChangedFrom="0" laneChangedTo="0"/>
        <edge id="n_t" sampledSeconds="116.70" traveltime="27.51" overlapTraveltime="28.46" density="62.61" laneDensity="20.87" occupancy="10.24" waitingTime="41.00" timeLoss="57.31" speed="6.73" speedRelative="0.48" departed="3" arrived="0" entered="0" left="6" laneChangedFrom="0" laneChangedTo="0"/>
        <edge id="s_t" sampledSeconds="124.42" traveltime="28.77" overlapTraveltime="29.80" density="66.75" laneDensity="22.25" occupancy="10.91" waitingTime="39.00" timeLoss="61.99" speed="6.42" speedRelative="0.46" departed="3" arrived="0" entered="0" left="5" laneChangedFrom="0" laneChangedTo="0"/>
        <edge id="t_e" sampledSeconds="11.54" traveltime="22.95" overlapTraveltime="23.57" density="6.19" laneDensity="2.06" occupancy="0.93" waitingTime="0.00" timeLoss="2.30" speed="8.12" speedRelative="0.58" departed="0" arrived="0" entered="3" left="0" laneChangedFrom="0" laneChangedTo="0"/>
        <edge id="t_n" sampledSeconds="11.42" traveltime="14.08" overlapTraveltime="14.46" density="6.13" laneDensity="2.04" occupancy="0.97" waitingTime="0.00" timeLoss="0.78" speed="13.24" speedRelative="0.95" departed="0" arrived="2" entered="2" left="0" laneChangedFrom="0" laneChangedTo="0"/>
        <edge id="t_s" sampledSeconds="13.78" traveltime="14.35" overlapTraveltime="14.74" density="7.39" laneDensity="2.46" occupancy="1.16" waitingTime="0.00" timeLoss="1.18" speed="12.99" speedRelative="0.94" departed="0" arrived="2" entered="2" left="0" laneChangedFrom="0" laneChangedTo="0"/>
        <edge id="t_w" sampledSeconds="20.15" traveltime="15.77" overlapTraveltime="16.14" density="10.81" laneDensity="3.60" occupancy="1.72" waitingTime="0.00" timeLoss="2.60" speed="11.86" speedRelative="0.85" departed="0" arrived="1" entered="2" left="0" laneChangedFrom="0" laneChangedTo="0"/>
        <edge id="w_t" sampledSeconds="30.00" traveltime="13.91" overlapTraveltime="14.39" density="16.09" laneDensity="5.36" occupancy="2.67" waitingTime="0.00" timeLoss="2.05" speed="13.30" speedRelative="0.96" departed="0" arrived="0" entered="0" left="1" laneChangedFrom="0" laneChangedTo="0"/>
    </interval>
    <interval begin="40.00" end="50.00" id="1">
        <edge id="e_t" sampledSeconds="30.15" traveltime="152.59" overlapTraveltime="152.80" density="16.18" laneDensity="5.39" occupancy="2.68" waitingTime="23.00" timeLoss="26.97" speed="1.25" speedRelative="0.09" departed="0" arrived="0" entered="0" left="0" laneChangedFrom="0" laneChangedTo="0"/>
        <edge id="n_t" sampledSeconds="105.91" traveltime="29.60" overlapTraveltime="30.25" density="56.82" laneDensity="18.94" occupancy="9.39" waitingTime="44.00" timeLoss="52.51" speed="6.33" speedRelative="0.46" departed="3" arrived="0" entered="0" left="2" laneChangedFrom="0" laneChangedTo="0"/>
        <edge id="s_t" sampledSeconds="106.88" traveltime="29.90" overlapTraveltime="30.51" density="57.34" laneDensity="19.11" occupancy="9.48" waitingTime="43.00" timeLoss="54.15" speed="6.27" speedRelative="0.45" departed="3" arrived="0" entered="0" left="3" laneChangedFrom="0" laneChangedTo="0"/>
        <edge id="t_e" sampledSeconds="34.53" traveltime="18.13" overlapTraveltime="18.62" density="18.53" laneDensity="6.18" occupancy="3.03" waitingTime="0.00" timeLoss="4.52" speed="10.28" speedRelative="0.74" departed="0" arrived="0" entered="1" left="0" laneChangedFrom="1" laneChangedTo="1"/>
        <edge id="t_n" sampledSeconds="47.32" traveltime="14.57" overlapTraveltime="14.96" density="25.39" laneDensity="8.46" occupancy="4.15" waitingTime="0.00" timeLoss="4.37" speed="12.79" speedRelative="0.92" departed="0" arrived="0" entered="4" left="0" laneChangedFrom="0" laneChangedTo="0"/>
        <edge id="t_s" sampledSeconds="51.24" traveltime="14.33" overlapTraveltime="14.71" density="27.49" laneDensity="9.16" occupancy="4.50" waitingTime="0.00" timeLoss="5.35" speed="13.01" speedRelative="0.94" departed="0" arrived="1" entered="4" left="0" laneChangedFrom="0" laneChangedTo="0"/>
        <edge id="t_w" sampledSeconds="22.11" traveltime="14.72" overlapTraveltime="15.11" density="11.86" laneDensity="3.95" occupancy="1.93" waitingTime="0.00" timeLoss="2.08" speed="12.67" speedRelative="0.91" departed="0" arrived="2" entered="1" left="0" laneChangedFrom="0" laneChangedTo="0"/>
        <edge id="w_t" sampledSeconds="20.23" traveltime="175.06" overlapTraveltime="169.05" density="10.86" laneDensity="3.62" occupancy="1.79" waitingTime="14.00" timeLoss="18.60" speed="1.13" speedRelative="0.08" departed="0" arrived="0" entered="0" left="0" laneChangedFrom="0" laneChangedTo="0"/>
    </interval>
    <interval begin="50.00" end="60.00" id="1">
        <edge id="e_t" sampledSeconds="51.00" traveltime="37.84" overlapTraveltime="38.85" density="27.36" laneDensity="9.12" occupancy="4.56" waitingTime="30.00" timeLoss="30.94" speed="4.93" speedRelative="0.35" departed="3" arrived="0" entered="0" left="0" laneChangedFrom="0" laneChangedTo="0"/>
        <edge id="n_t" sampledSeconds="122.90" traveltime="33.35" overlapTraveltime="34.13" density="65.93" laneDensity="21.98" occupancy="10.93" waitingTime="59.00" timeLoss="67.41" speed="5.61" speedRelative="0.40" departed="6" arrived="0" entered="0" left="2" laneChangedFrom="0" laneChangedTo="0"/>
        <edge id="s_t" sampledSeconds="128.00" traveltime="31.52" overlapTraveltime="32.21" density="68.67" laneDensity="22.89" occupancy="11.36" waitingTime="63.00" timeLoss="69.96" speed="5.94" speedRelative="0.43" departed="6" arrived="0" entered="0" left="3" laneChangedFrom="0" laneChangedTo="0"/>
        <edge id="t_e" sampledSeconds="26.43" traveltime="15.95" overlapTraveltime="16.43" density="14.18" laneDensity="4.73" occupancy="2.27" waitingTime="0.00" timeLoss="2.05" speed="11.65" speedRelative="0.84" departed="0" arrived="3" entered="1" left="0" laneChangedFrom="0" laneChangedTo="0"/>
        <edge id="t_n" sampledSeconds="39.59" traveltime="15.28" overlapTraveltime="15.63" density="21.24" laneDensity="7.08" occupancy="3.46" waitingTime="0.00" timeLoss="3.80" speed="12.24" speedRelative="0.88" departed="0" arrived="5" entered="1" left="0" laneChangedFrom="0" laneChangedTo="0"/>
        <edge id="t_s" sampledSeconds="38.30" traveltime="14.74" overlapTraveltime="15.08" density="20.55" laneDensity="6.85" occupancy="3.34" waitingTime="0.00" timeLoss="3.67" speed="12.69" speedRelative="0.91" departed="0" arrived="5" entered="1" left="0" laneChangedFrom="0" laneChangedTo="0"/>
        <edge id="t_w" sampledSeconds="18.17" traveltime="16.40" overlapTraveltime="16.76" density="9.75" laneDensity="3.25" occupancy="1.58" waitingTime="0.00" timeLoss="1.91" speed="11.42" speedRelative="0.82" departed="0" arrived="1" entered="1" left="0" laneChangedFrom="0" laneChangedTo="0"/>
        <edge id="w_t" sampledSeconds="41.00" traveltime="25.90" overlapTraveltime="26.59" density="22.00" laneDensity="7.33" occupancy="3.67" waitingTime="20.00" timeLoss="20.98" speed="7.20" speedRelative="0.52" departed="3" arrived="0" entered="0" left="0" laneChangedFrom="0" laneChangedTo="0"/>
    </interval>
    <interval begin="60.00" end="70.00" id="1">
        <edge id="e_t" sampledSeconds="50.50" traveltime="30.29" overlapTraveltime="31.61" density="27.09" laneDensity="9.03" occupancy="4.38" waitingTime="15.00" timeLoss="26.00" speed="6.05" speedRelative="0.44" departed="0" arrived="0" entered="0" left="3" laneChangedFrom="0" laneChangedTo="0"/>
        <edge id="n_t" sampledSeconds="149.36" traveltime="38.67" overlapTraveltime="39.62" density="80.13" laneDensity="26.71" occupancy="13.27" waitingTime="79.00" timeLoss="92.07" speed="4.83" speedRelative="0.35" departed="3" arrived="0" entered="0" left="2" laneChangedFrom="0" laneChangedTo="0"/>
        <edge id="s_t" sampledSeconds="142.95" traveltime="35.89" overlapTraveltime="36.86" density="76.69" laneDensity="25.56" occupancy="12.69" waitingTime="78.00" timeLoss="88.92" speed="5.19" speedRelative="0.37" departed="3" arrived="0" entered="0" left="2" laneChangedFrom="0" laneChangedTo="0"/>
        <edge id="t_e" sampledSeconds="23.16" traveltime="18.00" overlapTraveltime="18.41" density="12.43" laneDensity="4.14" occupancy="1.95" waitingTime="0.00" timeLoss="3.16" speed="10.40" speedRelative="0.75" departed="0" arrived="1" entered="4" left="0" laneChangedFrom="0" laneChangedTo="0"/>
        <edge id="t_n" sampledSeconds="22.53" traveltime="15.88" overlapTraveltime="16.31" density="12.09" laneDensity="4.03" occupancy="1.99" waitingTime="0.00" timeLoss="1.26" speed="11.73" speedRelative="0.84" departed="0" arrived="1" entered="1" left="0" laneChangedFrom="0" laneChangedTo="0"/>
        <edge id="t_s" sampledSeconds="11.50" traveltime="16.48" overlapTraveltime="16.92" density="6.17" laneDensity="2.06" occupancy="0.99" waitingTime="0.00" timeLoss="1.28" speed="11.31" speedRelative="0.81" departed="0" arrived="0" entered="1" left="0" laneChangedFrom="0" laneChangedTo="0"/>
        <edge id="t_w" sampledSeconds="29.21" traveltime="16.61" overlapTraveltime="17.06" density="15.67" laneDensity="5.22" occupancy="2.49" waitingTime="0.00" timeLoss="3.36" speed="11.22" speedRelative="0.81" departed="0" arrived="1" entered="4" left="0" laneChangedFrom="0" laneChangedTo="0"/>
        <edge id="w_t" sampledSeconds="38.04" traveltime="27.28" overlapTraveltime="28.42" density="20.41" laneDensity="6.80" occupancy="3.29" waitingTime="12.00" timeLoss="20.06" speed="6.73" speedRelative="0.48" departed="0" arrived="0" entered="0" left="3" laneChangedFrom="0" laneChangedTo="0"/>
    </interval>
    <interval begin="70.00" end="80.00" id="1">
        <edge id="e_t" sampledSeconds="24.63" traveltime="98.32" overlapTraveltime="94.91" density="13.21" laneDensity="4.40" occupancy="2.15" waitingTime="20.00" timeLoss="20.23" speed="2.02" speedRelative="0.15" departed="3" arrived="0" entered="0" left="1" laneChangedFrom="0" laneChangedTo="0"/>
        <edge id="n_t" sampledSeconds="174.05" traveltime="49.18" overlapTraveltime="50.40" density="93.37" laneDensity="31.12" occupancy="15.47" waitingTime="108.00" timeLoss="124.35" speed="3.80" speedRelative="0.27" departed="3" arrived="0" entered="0" left="2" laneChangedFrom="0" laneChangedTo="0"/>
        <edge id="s_t" sampledSeconds="164.48" traveltime="47.72" overlapTraveltime="48.85" density="88.24" laneDensity="29.41" occupancy="14.57" waitingTime="104.00" timeLoss="119.87" speed="3.92" speedRelative="0.28" departed="3" arrived="0" entered="0" left="3" laneChangedFrom="0" laneChangedTo="0"/>
        <edge id="t_e" sampledSeconds="53.40" traveltime="16.09" overlapTraveltime="16.54" density="28.65" laneDensity="9.55" occupancy="4.69" waitingTime="0.00" timeLoss="6.57" speed="11.57" speedRelative="0.83" departed="0" arrived="1" entered="2" left="0" laneChangedFrom="0" laneChangedTo="0"/>
        <edge id="t_n" sampledSeconds="17.04" traveltime="17.28" overlapTraveltime="17.67" density="9.14" laneDensity="3.05" occupancy="1.46" waitingTime="0.00" timeLoss="1.90" speed="10.83" speedRelative="0.78" departed="0" arrived="2" entered="1" left="0" laneChangedFrom="0" laneChangedTo="0"/>
        <edge id="t_s" sampledSeconds="10.76" traveltime="14.14" overlapTraveltime="14.57" density="5.77" laneDensity="1.92" occupancy="0.94" waitingTime="0.00" timeLoss="0.70" speed="13.14" speedRelative="0.95" departed="0" arrived="1" entered="0" left="0" laneChangedFrom="0" laneChangedTo="0"/>
        <edge id="t_w" sampledSeconds="53.45" traveltime="16.62" overlapTraveltime="17.06" density="28.67" laneDensity="9.56" occupancy="4.70" waitingTime="0.00" timeLoss="8.87" speed="11.22" speedRelative="0.81" departed="0" arrived="2" entered="2" left="0" laneChangedFrom="0" laneChangedTo="0"/>
        <edge id="w_t" sampledSeconds="23.00" traveltime="119.72" overlapTraveltime="122.93" density="12.34" laneDensity="4.11" occupancy="2.06" waitingTime="19.00" timeLoss="20.20" speed="1.56" speedRelative="0.11" departed="3" arrived="0" entered="0" left="0" laneChangedFrom="0" laneChangedTo="0"/>
    </interval>
    <interval begin="80.00" end="90.00" id="1">
        <edge id="e_t" sampledSeconds="50.00" traveltime="22.48" overlapTraveltime="23.08" density="26.82" laneDensity="8.94" occupancy="4.47" waitingTime="20.00" timeLoss="21.17" speed="8.29" speedRelative="0.60" departed="0" arrived="0" entered="0" left="0" laneChangedFrom="0" laneChangedTo="0"/>
        <edge id="n_t" sampledSeconds="175.62" traveltime="42.47" overlapTraveltime="43.12" density="94.22" laneDensity="31.41" occupancy="15.49" waitingTime="69.00" timeLoss="117.20" speed="4.44" speedRelative="0.32" departed="6" arrived="0" entered="0" left="6" laneChangedFrom="0" laneChangedTo="0"/>
        <edge id="s_t" sampledSeconds="161.75" traveltime="37.97" overlapTraveltime="38.63" density="86.77" laneDensity="28.92" occupancy="14.30" waitingTime="57.00" timeLoss="106.64" speed="4.95" speedRelative="0.36" departed="6" arrived="0" entered="0" left="5" laneChangedFrom="0" laneChangedTo="0"/>
        <edge id="t_e" sampledSeconds="51.14" traveltime="14.91" overlapTraveltime="15.30" density="27.43" laneDensity="9.14" occupancy="4.38" waitingTime="0.00" timeLoss="6.47" speed="12.51" speedRelative="0.90" departed="0" arrived="4" entered="5" left="0" laneChangedFrom="0" laneChangedTo="0"/>
        <edge id="t_n" sampledSeconds="10.00" traveltime="17.77" overlapTraveltime="18.25" density="5.36" laneDensity="1.79" occupancy="0.89" waitingTime="0.00" timeLoss="0.70" speed="10.49" speedRelative="0.76" departed="0" arrived="0" entered="0" left="0" laneChangedFrom="0" laneChangedTo="0"/>
        <edge id="t_s" sampledSeconds="3.47" traveltime="13.41" overlapTraveltime="13.85" density="1.86" laneDensity="0.62" occupancy="0.29" waitingTime="0.00" timeLoss="0.08" speed="13.82" speedRelative="0.99" departed="0" arrived="1" entered="0" left="0" laneChangedFrom="0" laneChangedTo="0"/>
        <edge id="t_w" sampledSeconds="63.98" traveltime="16.33" overlapTraveltime="16.74" density="34.33" laneDensity="11.44" occupancy="5.49" waitingTime="0.00" timeLoss="10.02" speed="11.43" speedRelative="0.82" departed="0" arrived="5" entered="6" left="0" laneChangedFrom="0" laneChangedTo="0"/>
        <edge id="w_t" sampledSeconds="50.00" traveltime="25.77" overlapTraveltime="26.46" density="26.82" laneDensity="8.94" occupancy="4.47" waitingTime="20.00" timeLoss="21.70" speed="7.23" speedRelative="0.52" departed="0" arrived="0" entered="0" left="0" laneChangedFrom="0" laneChangedTo="0"/>
    </interval>
    <interval begin="90.00" end="100.00" id="1">
        <edge id="e_t" sampledSeconds="42.81" traveltime="110.93" overlapTraveltime="108.40" density="22.97" laneDensity="7.66" occupancy="3.79" waitingTime="32.00" timeLoss="37.12" speed="1.77" speedRelative="0.13" departed="0" arrived="0" entered="0" left="1" laneChangedFrom="0" laneChangedTo="0"/>
        <edge id="n_t" sampledSeconds="173.28" traveltime="36.11" overlapTraveltime="37.15" density="92.96" laneDensity="30.99" occupancy="15.32" waitingTime="41.00" timeLoss="106.92" speed="5.15" speedRelative="0.37" departed="3" arrived="0" entered="0" left="4" laneChangedFrom="0" laneChangedTo="0"/>
        <edge id="s_t" sampledSeconds="159.97" traveltime="35.19" overlapTraveltime="36.16" density="85.82" laneDensity="28.61" occupancy="14.14" waitingTime="41.00" timeLoss="100.30" speed="5.29" speedRelative="0.38" departed="3" arrived="0" entered="0" left="4" laneChangedFrom="0" laneChangedTo="0"/>
        <edge id="t_e" sampledSeconds="64.10" traveltime="14.44" overlapTraveltime="14.79" density="34.39" laneDensity="11.46" occupancy="5.63" waitingTime="0.00" timeLoss="6.81" speed="12.94" speedRelative="0.93" departed="0" arrived="5" entered="2" left="0" laneChangedFrom="0" laneChangedTo="0"/>
        <edge id="t_n" sampledSeconds="11.54" traveltime="16.29" overlapTraveltime="16.76" density="6.19" laneDensity="2.06" occupancy="0.94" waitingTime="0.00" timeLoss="2.14" speed="11.42" speedRelative="0.82" departed="0" arrived="1" entered="3" left="0" laneChangedFrom="0" laneChangedTo="0"/>
        <edge id="t_s" sampledSeconds="7.26" traveltime="17.53" overlapTraveltime="18.00" density="3.89" laneDensity="1.30" occupancy="0.57" waitingTime="0.00" timeLoss="1.08" speed="10.63" speedRelative="0.77" departed="0" arrived="0" entered="3" left="0" laneChangedFrom="0" laneChangedTo="0"/>
        <edge id="t_w" sampledSeconds="64.58" traveltime="15.22" overlapTraveltime="15.61" density="34.64" laneDensity="11.55" occupancy="5.68" waitingTime="0.00" timeLoss="5.79" speed="12.26" speedRelative="0.88" departed="0" arrived="3" entered="2" left="0" laneChangedFrom="0" laneChangedTo="0"/>
        <edge id="w_t" sampledSeconds="45.06" traveltime="63.57" overlapTraveltime="64.12" density="24.18" laneDensity="8.06" occupancy="3.99" waitingTime="25.00" timeLoss="33.73" speed="2.98" speedRelative="0.21" departed="0" arrived="0" entered="0" left="1" laneChangedFrom="0" laneChangedTo="0"/>
    </interval>
    <interval begin="100.00" end="110.00" id="1">
        <edge id="e_t" sampledSeconds="58.00" traveltime="42.20" overlapTraveltime="43.33" density="31.12" laneDensity="10.37" occupancy="5.19" waitingTime="40.00" timeLoss="40.62" speed="4.42" speedRelative="0.32" departed="3" arrived="0" entered="0" left="0" laneChangedFrom="0" laneChangedTo="0"/>
        <edge id="n_t" sampledSeconds="157.10" traveltime="37.69" overlapTraveltime="38.36" density="84.28" laneDensity="28.09" occupancy="13.90" waitingTime="65.00" timeLoss="101.18" speed="4.99" speedRelative="0.36" departed="6" arrived="0" entered="0" left="5" laneChangedFrom="0" laneChangedTo="0"/>
        <edge id="s_t" sampledSeconds="148.66" traveltime="35.99" overlapTraveltime="36.65" density="79.75" laneDensity="26.58" occupancy="13.10" waitingTime="69.00" timeLoss="92.60" speed="5.22" speedRelative="0.38" departed="6" arrived="0" entered="0" left="6" laneChangedFrom="0" laneChangedTo="0"/>
        <edge id="t_e" sampledSeconds="30.01" traveltime="14.46" overlapTraveltime="14.81" density="16.10" laneDensity="5.37" occupancy="2.55" waitingTime="0.00" timeLoss="2.49" speed="12.92" speedRelative="0.93" departed="0" arrived="4" entered="2" left="0" laneChangedFrom="0" laneChangedTo="0"/>
        <edge id="t_n" sampledSeconds="52.38" traveltime="14.47" overlapTraveltime="14.85" density="28.10" laneDensity="9.37" occupancy="4.60" waitingTime="0.00" timeLoss="6.53" speed="12.89" speedRelative="0.93" departed="0" arrived="1" entered="4" left="0" laneChangedFrom="0" laneChangedTo="0"/>
        <edge id="t_s" sampledSeconds="52.77" traveltime="16.48" overlapTraveltime="16.93" density="28.31" laneDensity="9.44" occupancy="4.64" waitingTime="0.00" timeLoss="5.73" speed="11.31" speedRelative="0.81" departed="0" arrived="0" entered="4" left="0" laneChangedFrom="0" laneChangedTo="0"/>
        <edge id="t_w" sampledSeconds="36.80" traveltime="15.50" overlapTraveltime="15.89" density="19.74" laneDensity="6.58" occupancy="3.21" waitingTime="0.00" timeLoss="3.64" speed="12.05" speedRelative="0.87" departed="0" arrived="4" entered="1" left="0" laneChangedFrom="0" laneChangedTo="0"/>
        <edge id="w_t" sampledSeconds="58.00" traveltime="39.73" overlapTraveltime="40.79" density="31.12" laneDensity="10.37" occupancy="5.19" waitingTime="40.00" timeLoss="40.84" speed="4.69" speedRelative="0.34" departed="3" arrived="0" entered="0" left="0" laneChangedFrom="0" laneChangedTo="0"/>
    </interval>
    <interval begin="110.00" end="120.00" id="1">
        <edge id="e_t" sampledSeconds="69.00" traveltime="49.68" overlapTraveltime="50.67" density="37.02" laneDensity="12.34" occupancy="6.13" waitingTime="43.00" timeLoss="50.61" speed="3.78" speedRelative="0.27" departed="0" arrived="0" entered="0" left="1" laneChangedFrom="0" laneChangedTo="0"/>
        <edge id="n_t" sampledSeconds="150.00" traveltime="34.60" overlapTraveltime="35.36" density="80.47" laneDensity="26.82" occupancy="13.20" waitingTime="42.00" timeLoss="88.15" speed="5.41" speedRelative="0.39" departed="3" arrived="0" entered="0" left="6" laneChangedFrom="0" laneChangedTo="0"/>
        <edge id="s_t" sampledSeconds="134.99" traveltime="29.93" overlapTraveltime="30.66" density="72.42" laneDensity="24.14" occupancy="11.91" waitingTime="31.00" timeLoss="74.96" speed="6.24" speedRelative="0.45" departed="3" arrived="0" entered="0" left="5" laneChangedFrom="0" laneChangedTo="0"/>
        <edge id="t_e" sampledSeconds="39.54" traveltime="16.33" overlapTraveltime="16.76" density="21.21" laneDensity="7.07" occupancy="3.39" waitingTime="0.00" timeLoss="4.79" speed="11.42" speedRelative="0.82" departed="0" arrived="0" entered="5" left="0" laneChangedFrom="0" laneChangedTo="0"/>
        <edge id="t_n" sampledSeconds="39.71" traveltime="14.22" overlapTraveltime="14.57" density="21.30" laneDensity="7.10" occupancy="3.47" waitingTime="0.00" timeLoss="4.55" speed="13.14" speedRelative="0.95" departed="0" arrived="5" entered="1" left="0" laneChangedFrom="0" laneChangedTo="0"/>
        <edge id="t_s" sampledSeconds="53.63" traveltime="16.90" overlapTraveltime="17.32" density="28.77" laneDensity="9.59" occupancy="4.72" waitingTime="0.00" timeLoss="9.01" speed="11.05" speedRelative="0.80" departed="0" arrived="4" entered="1" left="0" laneChangedFrom="0" laneChangedTo="0"/>
        <edge id="t_w" sampledSeconds="41.82" traveltime="14.74" overlapTraveltime="15.11" density="22.44" laneDensity="7.48" occupancy="3.55" waitingTime="0.00" timeLoss="6.25" speed="12.67" speedRelative="0.91" departed="0" arrived="2" entered="6" left="0" laneChangedFrom="0" laneChangedTo="0"/>