<?xml version="1.0" encoding="UTF-8"?>

<!-- generated on 2024-05-18 15:18:58 by Eclipse SUMO libsumo Version 1.19.0
<configuration xmlns:xsi="http://www.w3.org/2001/XMLSchema-instance" xsi:noNamespaceSchemaLocation="http://sumo.dlr.de/xsd/libsumoConfiguration.xsd">

    <input>
        <net-file value="nets/syc/1x1/Low_heavy/syc_4phases.net.xml"/>
        <route-files value="nets/syc/1x1/Low_heavy/low_heavy.rou.xml"/>
        <additional-files value="nets/syc/1x1/Low_heavy/1x1_outputs.add.xml"/>
    </input>

    <output>
        <fcd-output value="nets/syc/1x1/Low_heavy/output/fcd_output.xml"/>
        <tripinfo-output value="nets/syc/1x1/Low_heavy/output/tripinfo.out.xml"/>
    </output>

    <time>
        <begin value="0"/>
        <end value="1000"/>
    </time>

    <processing>
        <time-to-teleport value="-1"/>
        <waiting-time-memory value="1000"/>
        <max-depart-delay value="-1"/>
    </processing>

    <random_number>
        <seed value="0"/>
    </random_number>

</configuration>
-->

<tripinfos xmlns:xsi="http://www.w3.org/2001/XMLSchema-instance" xsi:noNamespaceSchemaLocation="http://sumo.dlr.de/xsd/tripinfo_file.xsd">
    <tripinfo id="flow_se.0" depart="0.00" departLane="s_t_0" departPos="5.10" departSpeed="16.05" departDelay="0.00" arrival="27.00" arrivalLane="t_e_0" arrivalPos="186.40" arrivalSpeed="15.66" duration="27.00" routeLength="376.73" waitingTime="0.00" waitingCount="0" stopTime="0.00" timeLoss="2.84" rerouteNo="0" devices="tripinfo_flow_se.0 fcd_flow_se.0" vType="DEFAULT_VEHTYPE" speedFactor="1.16" vaporized=""/>
    <tripinfo id="flow_we.0" depart="0.00" departLane="w_t_1" departPos="5.10" departSpeed="15.63" departDelay="0.00" arrival="27.00" arrivalLane="t_e_1" arrivalPos="186.40" arrivalSpeed="15.28" duration="27.00" routeLength="394.90" waitingTime="0.00" waitingCount="0" stopTime="0.00" timeLoss="1.10" rerouteNo="0" devices="tripinfo_flow_we.0 fcd_flow_we.0" vType="DEFAULT_VEHTYPE" speedFactor="1.13" vaporized=""/>
    <tripinfo id="flow_nw.0" depart="0.00" departLane="n_t_0" departPos="5.10" departSpeed="14.56" departDelay="0.00" arrival="30.00" arrivalLane="t_w_0" arrivalPos="186.40" arrivalSpeed="14.03" duration="30.00" routeLength="376.73" waitingTime="0.00" waitingCount="0" stopTime="0.00" timeLoss="2.94" rerouteNo="0" devices="tripinfo_flow_nw.0 fcd_flow_nw.0" vType="DEFAULT_VEHTYPE" speedFactor="1.05" vaporized=""/>
    <tripinfo id="flow_wn.0" depart="0.00" departLane="w_t_2" departPos="5.10" departSpeed="17.61" departDelay="0.00" arrival="32.00" arrivalLane="t_n_2" arrivalPos="186.40" arrivalSpeed="17.37" duration="32.00" routeLength="392.21" waitingTime="2.00" waitingCount="1" stopTime="0.00" timeLoss="9.24" rerouteNo="0" devices="tripinfo_flow_wn.0 fcd_flow_wn.0" vType="DEFAULT_VEHTYPE" speedFactor="1.27" vaporized=""/>
    <tripinfo id="flow_en.0" depart="0.00" departLane="e_t_0" departPos="5.10" departSpeed="13.13" departDelay="0.00" arrival="33.00" arrivalLane="t_n_0" arrivalPos="186.40" arrivalSpeed="12.33" duration="33.00" routeLength="376.73" waitingTime="0.00" waitingCount="0" stopTime="0.00" timeLoss="3.51" rerouteNo="0" devices="tripinfo_flow_en.0 fcd_flow_en.0" vType="DEFAULT_VEHTYPE" speedFactor="0.95" vaporized=""/>
    <tripinfo id="flow_ws.0" depart="0.00" departLane="w_t_0" departPos="5.10" departSpeed="13.13" departDelay="0.00" arrival="33.00" arrivalLane="t_s_0" arrivalPos="186.40" arrivalSpeed="12.33" duration="33.00" routeLength="376.73" waitingTime="0.00" waitingCount="0" stopTime="0.00" timeLoss="3.55" rerouteNo="0" devices="tripinfo_flow_ws.0 fcd_flow_ws.0" vType="DEFAULT_VEHTYPE" speedFactor="0.95" vaporized=""/>
    <tripinfo id="flow_es.0" depart="0.00" departLane="e_t_2" departPos="5.10" departSpeed="14.64" departDelay="0.00" arrival="35.00" arrivalLane="t_s_2" arrivalPos="186.40" arrivalSpeed="13.53" duration="35.00" routeLength="392.21" waitingTime="1.00" waitingCount="1" stopTime="0.00" timeLoss="6.96" rerouteNo="0" devices="tripinfo_flow_es.0 fcd_flow_es.0" vType="DEFAULT_VEHTYPE" speedFactor="1.05" vaporized=""/>
    <tripinfo id="flow_nw.1" depart="8.00" departLane="n_t_0" departPos="5.10" departSpeed="13.70" departDelay="0.80" arrival="40.00" arrivalLane="t_w_0" arrivalPos="186.40" arrivalSpeed="13.39" duration="32.00" routeLength="376.73" waitingTime="0.00" waitingCount="0" stopTime="0.00" timeLoss="3.43" rerouteNo="0" devices="tripinfo_flow_nw.1 fcd_flow_nw.1" vType="DEFAULT_VEHTYPE" speedFactor="0.99" vaporized=""/>
    <tripinfo id="flow_nw.2" depart="15.00" departLane="n_t_0" departPos="5.10" departSpeed="13.04" departDelay="0.60" arrival="48.00" arrivalLane="t_w_0" arrivalPos="186.40" arrivalSpeed="11.75" duration="33.00" routeLength="376.73" waitingTime="0.00" waitingCount="0" stopTime="0.00" timeLoss="3.54" rerouteNo="0" devices="tripinfo_flow_nw.2 fcd_flow_nw.2" vType="DEFAULT_VEHTYPE" speedFactor="0.94" vaporized=""/>
    <tripinfo id="flow_ns.0" depart="0.00" departLane="n_t_1" departPos="5.10" departSpeed="15.51" departDelay="0.00" arrival="49.00" arrivalLane="t_s_1" arrivalPos="186.40" arrivalSpeed="14.78" duration="49.00" routeLength="394.90" waitingTime="16.00" waitingCount="1" stopTime="0.00" timeLoss="23.45" rerouteNo="0" devices="tripinfo_flow_ns.0 fcd_flow_ns.0" vType="DEFAULT_VEHTYPE" speedFactor="1.12" vaporized=""/>
    <tripinfo id="flow_se.1" depart="8.00" departLane="s_t_0" departPos="5.10" departSpeed="10.06" departDelay="0.80" arrival="51.00" arrivalLane="t_e_0" arrivalPos="186.40" arrivalSpeed="9.84" duration="43.00" routeLength="376.73" waitingTime="0.00" waitingCount="0" stopTime="0.00" timeLoss="4.06" rerouteNo="0" devices="tripinfo_flow_se.1 fcd_flow_se.1" vType="DEFAULT_VEHTYPE" speedFactor="0.72" vaporized=""/>
    <tripinfo id="flow_nw.3" depart="22.00" departLane="n_t_0" departPos="5.10" departSpeed="15.08" departDelay="0.40" arrival="51.00" arrivalLane="t_w_0" arrivalPos="186.40" arrivalSpeed="14.61" duration="29.00" routeLength="376.73" waitingTime="0.00" waitingCount="0" stopTime="0.00" timeLoss="3.27" rerouteNo="0" devices="tripinfo_flow_nw.3 fcd_flow_nw.3" vType="DEFAULT_VEHTYPE" speedFactor="1.09" vaporized=""/>
    <tripinfo id="flow_sn.0" depart="0.00" departLane="s_t_1" departPos="5.10" departSpeed="12.27" departDelay="0.00" arrival="52.00" arrivalLane="t_n_1" arrivalPos="186.40" arrivalSpeed="11.16" duration="52.00" routeLength="394.90" waitingTime="14.00" waitingCount="1" stopTime="0.00" timeLoss="19.44" rerouteNo="0" devices="tripinfo_flow_sn.0 fcd_flow_sn.0" vType="DEFAULT_VEHTYPE" speedFactor="0.88" vaporized=""/>
    <tripinfo id="flow_en.1" depart="26.00" departLane="e_t_0" departPos="5.10" departSpeed="16.00" departDelay="0.29" arrival="53.00" arrivalLane="t_n_0" arrivalPos="186.40" arrivalSpeed="15.31" duration="27.00" routeLength="376.73" waitingTime="0.00" waitingCount="0" stopTime="0.00" timeLoss="2.61" rerouteNo="0" devices="tripinfo_flow_en.1 fcd_flow_en.1" vType="DEFAULT_VEHTYPE" speedFactor="1.15" vaporized=""/>
    <tripinfo id="flow_ns.1" depart="8.00" departLane="n_t_1" departPos="5.10" departSpeed="12.94" departDelay="0.80" arrival="54.00" arrivalLane="t_s_1" arrivalPos="186.40" arrivalSpeed="12.00" duration="46.00" routeLength="394.90" waitingTime="8.00" waitingCount="1" stopTime="0.00" timeLoss="14.71" rerouteNo="0" devices="tripinfo_flow_ns.1 fcd_flow_ns.1" vType="DEFAULT_VEHTYPE" speedFactor="0.93" vaporized=""/>
    <tripinfo id="flow_sn.1" depart="8.00" departLane="s_t_1" departPos="5.10" departSpeed="14.68" departDelay="0.80" arrival="54.00" arrivalLane="t_n_1" arrivalPos="186.40" arrivalSpeed="14.12" duration="46.00" routeLength="394.90" waitingTime="8.00" waitingCount="1" stopTime="0.00" timeLoss="18.33" rerouteNo="0" devices="tripinfo_flow_sn.1 fcd_flow_sn.1" vType="DEFAULT_VEHTYPE" speedFactor="1.06" vaporized=""/>
    <tripinfo id="flow_se.3" depart="22.00" departLane="s_t_0" departPos="5.10" departSpeed="14.63" departDelay="0.40" arrival="54.00" arrivalLane="t_e_1" arrivalPos="186.40" arrivalSpeed="14.49" duration="32.00" routeLength="376.73" waitingTime="0.00" waitingCount="0" stopTime="0.00" timeLoss="5.69" rerouteNo="0" devices="tripinfo_flow_se.3 fcd_flow_se.3" vType="DEFAULT_VEHTYPE" speedFactor="1.05" vaporized=""/>
    <tripinfo id="flow_ws.1" depart="26.00" departLane="w_t_0" departPos="5.10" departSpeed="15.71" departDelay="0.29" arrival="54.00" arrivalLane="t_s_0" arrivalPos="186.40" arrivalSpeed="15.71" duration="28.00" routeLength="376.73" waitingTime="0.00" waitingCount="0" stopTime="0.00" timeLoss="2.80" rerouteNo="0" devices="tripinfo_flow_ws.1 fcd_flow_ws.1" vType="DEFAULT_VEHTYPE" speedFactor="1.13" vaporized=""/>
    <tripinfo id="flow_ns.2" depart="15.00" departLane="n_t_1" departPos="5.10" departSpeed="15.38" departDelay="0.60" arrival="55.00" arrivalLane="t_s_1" arrivalPos="186.40" arrivalSpeed="15.07" duration="40.00" routeLength="394.90" waitingTime="5.00" waitingCount="1" stopTime="0.00" timeLoss="14.07" rerouteNo="0" devices="tripinfo_flow_ns.2 fcd_flow_ns.2" vType="DEFAULT_VEHTYPE" speedFactor="1.11" vaporized=""/>
    <tripinfo id="flow_sn.2" depart="15.00" departLane="s_t_1" departPos="5.10" departSpeed="13.97" departDelay="0.60" arrival="55.00" arrivalLane="t_n_1" arrivalPos="186.40" arrivalSpeed="12.79" duration="40.00" routeLength="394.90" waitingTime="3.00" waitingCount="1" stopTime="0.00" timeLoss="11.72" rerouteNo="0" devices="tripinfo_flow_sn.2 fcd_flow_sn.2" vType="DEFAULT_VEHTYPE" speedFactor="1.01" vaporized=""/>
    <tripinfo id="flow_se.2" depart="15.00" departLane="s_t_0" departPos="5.10" departSpeed="10.41" departDelay="0.60" arrival="57.00" arrivalLane="t_e_0" arrivalPos="186.40" arrivalSpeed="9.36" duration="42.00" routeLength="376.73" waitingTime="0.00" waitingCount="0" stopTime="0.00" timeLoss="4.11" rerouteNo="0" devices="tripinfo_flow_se.2 fcd_flow_se.2" vType="DEFAULT_VEHTYPE" speedFactor="0.75" vaporized=""/>
    <tripinfo id="flow_ns.3" depart="22.00" departLane="n_t_1" departPos="5.10" departSpeed="13.07" departDelay="0.40" arrival="57.00" arrivalLane="t_s_1" arrivalPos="186.40" arrivalSpeed="12.38" duration="35.00" routeLength="394.90" waitingTime="0.00" waitingCount="0" stopTime="0.00" timeLoss="4.56" rerouteNo="0" devices="tripinfo_flow_ns.3 fcd_flow_ns.3" vType="DEFAULT_VEHTYPE" speedFactor="0.94" vaporized=""/>
    <tripinfo id="flow_sn.3" depart="22.00" departLane="s_t_1" departPos="5.10" departSpeed="14.38" departDelay="0.40" arrival="57.00" arrivalLane="t_n_1" arrivalPos="186.40" arrivalSpeed="14.00" duration="35.00" routeLength="394.90" waitingTime="0.00" waitingCount="0" stopTime="0.00" timeLoss="7.11" rerouteNo="0" devices="tripinfo_flow_sn.3 fcd_flow_sn.3" vType="DEFAULT_VEHTYPE" speedFactor="1.03" vaporized=""/>
    <tripinfo id="flow_ns.4" depart="29.00" departLane="n_t_1" departPos="5.10" departSpeed="14.59" departDelay="0.20" arrival="59.00" arrivalLane="t_s_1" arrivalPos="186.40" arrivalSpeed="13.71" duration="30.00" routeLength="394.90" waitingTime="0.00" waitingCount="0" stopTime="0.00" timeLoss="2.40" rerouteNo="0" devices="tripinfo_flow_ns.4 fcd_flow_ns.4" vType="DEFAULT_VEHTYPE" speedFactor="1.05" vaporized=""/>
    <tripinfo id="flow_se.4" depart="29.00" departLane="s_t_0" departPos="5.10" departSpeed="14.00" departDelay="0.20" arrival="60.00" arrivalLane="t_e_0" arrivalPos="186.40" arrivalSpeed="12.90" duration="31.00" routeLength="376.73" waitingTime="0.00" waitingCount="0" stopTime="0.00" timeLoss="3.12" rerouteNo="0" devices="tripinfo_flow_se.4 fcd_flow_se.4" vType="DEFAULT_VEHTYPE" speedFactor="1.01" vaporized=""/>
    <tripinfo id="flow_sn.4" depart="29.00" departLane="s_t_1" departPos="5.10" departSpeed="12.35" departDelay="0.20" arrival="63.00" arrivalLane="t_n_1" arrivalPos="186.40" arrivalSpeed="11.51" duration="34.00" routeLength="394.90" waitingTime="0.00" waitingCount="0" stopTime="0.00" timeLoss="1.74" rerouteNo="0" devices="tripinfo_flow_sn.4 fcd_flow_sn.4" vType="DEFAULT_VEHTYPE" speedFactor="0.89" vaporized=""/>
    <tripinfo id="flow_nw.4" depart="29.00" departLane="n_t_0" departPos="5.10" departSpeed="12.24" departDelay="0.20" arrival="64.00" arrivalLane="t_w_0" arrivalPos="186.40" arrivalSpeed="11.25" duration="35.00" routeLength="376.73" waitingTime="0.00" waitingCount="0" stopTime="0.00" timeLoss="3.58" rerouteNo="0" devices="tripinfo_flow_nw.4 fcd_flow_nw.4" vType="DEFAULT_VEHTYPE" speedFactor="0.88" vaporized=""/>
    <tripinfo id="flow_ns.5" depart="36.00" departLane="n_t_1" departPos="5.10" departSpeed="12.61" departDelay="0.00" arrival="70.00" arrivalLane="t_s_1" arrivalPos="186.40" arrivalSpeed="11.92" duration="34.00" routeLength="394.90" waitingTime="0.00" waitingCount="0" stopTime="0.00" timeLoss="2.07" rerouteNo="0" devices="tripinfo_flow_ns.5 fcd_flow_ns.5" vType="DEFAULT_VEHTYPE" speedFactor="0.91" vaporized=""/>
    <tripinfo id="flow_nw.5" depart="36.00" departLane="n_t_0" departPos="5.10" departSpeed="12.85" departDelay="0.00" arrival="70.00" arrivalLane="t_w_0" arrivalPos="186.40" arrivalSpeed="12.01" duration="34.00" routeLength="376.73" waitingTime="0.00" waitingCount="0" stopTime="0.00" timeLoss="3.34" rerouteNo="0" devices="tripinfo_flow_nw.5 fcd_flow_nw.5" vType="DEFAULT_VEHTYPE" speedFactor="0.93" vaporized=""/>
    <tripinfo id="flow_sn.5" depart="36.00" departLane="s_t_1" departPos="5.10" departSpeed="11.77" departDelay="0.00" arrival="72.00" arrivalLane="t_n_1" arrivalPos="186.40" arrivalSpeed="10.66" duration="36.00" routeLength="394.90" waitingTime="0.00" waitingCount="0" stopTime="0.00" timeLoss="2.31" rerouteNo="0" devices="tripinfo_flow_sn.5 fcd_flow_sn.5" vType="DEFAULT_VEHTYPE" speedFactor="0.85" vaporized=""/>
    <tripinfo id="flow_sn.6" depart="44.00" departLane="s_t_1" departPos="5.10" departSpeed="13.23" departDelay="0.80" arrival="76.00" arrivalLane="t_n_1" arrivalPos="186.40" arrivalSpeed="12.80" duration="32.00" routeLength="394.90" waitingTime="0.00" waitingCount="0" stopTime="0.00" timeLoss="1.39" rerouteNo="0" devices="tripinfo_flow_sn.6 fcd_flow_sn.6" vType="DEFAULT_VEHTYPE" speedFactor="0.95" vaporized=""/>
    <tripinfo id="flow_se.5" depart="36.00" departLane="s_t_0" departPos="5.10" departSpeed="10.40" departDelay="0.00" arrival="78.00" arrivalLane="t_e_0" arrivalPos="186.40" arrivalSpeed="9.74" duration="42.00" routeLength="376.73" waitingTime="0.00" waitingCount="0" stopTime="0.00" timeLoss="4.42" rerouteNo="0" devices="tripinfo_flow_se.5 fcd_flow_se.5" vType="DEFAULT_VEHTYPE" speedFactor="0.75" vaporized=""/>
    <tripinfo id="flow_nw.6" depart="44.00" departLane="n_t_0" departPos="5.10" departSpeed="12.56" departDelay="0.80" arrival="78.00" arrivalLane="t_w_0" arrivalPos="186.40" arrivalSpeed="11.54" duration="34.00" routeLength="376.73" waitingTime="0.00" waitingCount="0" stopTime="0.00" timeLoss="2.97" rerouteNo="0" devices="tripinfo_flow_nw.6 fcd_flow_nw.6" vType="DEFAULT_VEHTYPE" speedFactor="0.90" vaporized=""/>
    <tripinfo id="flow_we.1" depart="26.00" departLane="w_t_1" departPos="5.10" departSpeed="14.30" departDelay="0.29" arrival="80.00" arrivalLane="t_e_1" arrivalPos="186.40" arrivalSpeed="13.75" duration="54.00" routeLength="394.90" waitingTime="19.00" waitingCount="1" stopTime="0.00" timeLoss="25.94" rerouteNo="0" devices="tripinfo_flow_we.1 fcd_flow_we.1" vType="DEFAULT_VEHTYPE" speedFactor="1.03" vaporized=""/>
    <tripinfo id="flow_se.6" depart="44.00" departLane="s_t_0" departPos="5.10" departSpeed="12.26" departDelay="0.80" arrival="80.00" arrivalLane="t_e_0" arrivalPos="186.40" arrivalSpeed="11.22" duration="36.00" routeLength="376.73" waitingTime="0.00" waitingCount="0" stopTime="0.00" timeLoss="4.37" rerouteNo="0" devices="tripinfo_flow_se.6 fcd_flow_se.6" vType="DEFAULT_VEHTYPE" speedFactor="0.88" vaporized=""/>
    <tripinfo id="flow_nw.7" depart="51.00" departLane="n_t_0" departPos="5.10" departSpeed="15.18" departDelay="0.60" arrival="80.00" arrivalLane="t_w_0" arrivalPos="186.40" arrivalSpeed="14.12" duration="29.00" routeLength="376.73" waitingTime="0.00" waitingCount="0" stopTime="0.00" timeLoss="3.34" rerouteNo="0" devices="tripinfo_flow_nw.7 fcd_flow_nw.7" vType="DEFAULT_VEHTYPE" speedFactor="1.09" vaporized=""/>
    <tripinfo id="flow_we.2" depart="52.00" departLane="w_t_1" departPos="5.10" departSpeed="16.39" departDelay="0.57" arrival="82.00" arrivalLane="t_e_1" arrivalPos="186.40" arrivalSpeed="15.87" duration="30.00" routeLength="394.90" waitingTime="0.00" waitingCount="0" stopTime="0.00" timeLoss="5.10" rerouteNo="0" devices="tripinfo_flow_we.2 fcd_flow_we.2" vType="DEFAULT_VEHTYPE" speedFactor="1.18" vaporized=""/>
    <tripinfo id="flow_ws.2" depart="52.00" departLane="w_t_0" departPos="5.10" departSpeed="14.16" departDelay="0.57" arrival="83.00" arrivalLane="t_s_0" arrivalPos="186.40" arrivalSpeed="13.14" duration="31.00" routeLength="376.73" waitingTime="0.00" waitingCount="0" stopTime="0.00" timeLoss="3.04" rerouteNo="0" devices="tripinfo_flow_ws.2 fcd_flow_ws.2" vType="DEFAULT_VEHTYPE" speedFactor="1.02" vaporized=""/>
    <tripinfo id="flow_ew.0" depart="0.00" departLane="e_t_1" departPos="5.10" departSpeed="10.62" departDelay="0.00" arrival="86.00" arrivalLane="t_w_1" arrivalPos="186.40" arrivalSpeed="9.96" duration="86.00" routeLength="394.90" waitingTime="40.00" waitingCount="1" stopTime="0.00" timeLoss="47.91" rerouteNo="0" devices="tripinfo_flow_ew.0 fcd_flow_ew.0" vType="DEFAULT_VEHTYPE" speedFactor="0.76" vaporized=""/>
    <tripinfo id="flow_se.7" depart="51.00" departLane="s_t_0" departPos="5.10" departSpeed="12.69" departDelay="0.60" arrival="86.00" arrivalLane="t_e_0" arrivalPos="186.40" arrivalSpeed="11.76" duration="35.00" routeLength="376.73" waitingTime="0.00" waitingCount="0" stopTime="0.00" timeLoss="3.45" rerouteNo="0" devices="tripinfo_flow_se.7 fcd_flow_se.7" vType="DEFAULT_VEHTYPE" speedFactor="0.91" vaporized=""/>
    <tripinfo id="flow_ew.1" depart="26.00" departLane="e_t_1" departPos="5.10" departSpeed="16.53" departDelay="0.29" arrival="87.00" arrivalLane="t_w_1" arrivalPos="186.40" arrivalSpeed="11.73" duration="61.00" routeLength="394.90" waitingTime="21.00" waitingCount="1" stopTime="0.00" timeLoss="37.04" rerouteNo="0" devices="tripinfo_flow_ew.1 fcd_flow_ew.1" vType="DEFAULT_VEHTYPE" speedFactor="1.19" vaporized=""/>
    <tripinfo id="flow_ew.2" depart="52.00" departLane="e_t_1" departPos="5.10" departSpeed="12.89" departDelay="0.57" arrival="89.00" arrivalLane="t_w_1" arrivalPos="186.40" arrivalSpeed="11.62" duration="37.00" routeLength="394.90" waitingTime="0.00" waitingCount="0" stopTime="0.00" timeLoss="6.01" rerouteNo="0" devices="tripinfo_flow_ew.2 fcd_flow_ew.2" vType="DEFAULT_VEHTYPE" speedFactor="0.93" vaporized=""/>
    <tripinfo id="flow_nw.8" depart="58.00" departLane="n_t_0" departPos="5.10" departSpeed="13.96" departDelay="0.40" arrival="89.00" arrivalLane="t_w_0" arrivalPos="186.40" arrivalSpeed="13.31" duration="31.00" routeLength="376.73" waitingTime="0.00" waitingCount="0" stopTime="0.00" timeLoss="3.05" rerouteNo="0" devices="tripinfo_flow_nw.8 fcd_flow_nw.8" vType="DEFAULT_VEHTYPE" speedFactor="1.00" vaporized=""/>
    <tripinfo id="flow_en.2" depart="52.00" departLane="e_t_0" departPos="5.10" departSpeed="11.28" departDelay="0.57" arrival="91.00" arrivalLane="t_n_0" arrivalPos="186.40" arrivalSpeed="10.83" duration="39.00" routeLength="376.73" waitingTime="0.00" waitingCount="0" stopTime="0.00" timeLoss="3.93" rerouteNo="0" devices="tripinfo_flow_en.2 fcd_flow_en.2" vType="DEFAULT_VEHTYPE" speedFactor="0.81" vaporized=""/>
    <tripinfo id="flow_se.8" depart="58.00" departLane="s_t_0" departPos="5.10" departSpeed="12.65" departDelay="0.40" arrival="92.00" arrivalLane="t_e_0" arrivalPos="186.40" arrivalSpeed="12.09" duration="34.00" routeLength="376.73" waitingTime="0.00" waitingCount="0" stopTime="0.00" timeLoss="3.18" rerouteNo="0" devices="tripinfo_flow_se.8 fcd_flow_se.8" vType="DEFAULT_VEHTYPE" speedFactor="0.91" vaporized=""/>
    <tripinfo id="flow_se.9" depart="65.00" departLane="s_t_0" departPos="5.10" departSpeed="16.43" departDelay="0.20" arrival="94.00" arrivalLane="t_e_0" arrivalPos="186.40" arrivalSpeed="15.91" duration="29.00" routeLength="376.73" waitingTime="0.00" waitingCount="0" stopTime="0.00" timeLoss="5.01" rerouteNo="0" devices="tripinfo_flow_se.9 fcd_flow_se.9" vType="DEFAULT_VEHTYPE" speedFactor="1.18" vaporized=""/>
    <tripinfo id="flow_ne.0" depart="0.00" departLane="n_t_2" departPos="5.10" departSpeed="14.31" departDelay="0.00" arrival="95.00" arrivalLane="t_e_2" arrivalPos="186.40" arrivalSpeed="13.93" duration="95.00" routeLength="392.21" waitingTime="60.00" waitingCount="1" stopTime="0.00" timeLoss="66.80" rerouteNo="0" devices="tripinfo_flow_ne.0 fcd_flow_ne.0" vType="DEFAULT_VEHTYPE" speedFactor="1.03" vaporized=""/>
    <tripinfo id="flow_sw.0" depart="0.00" departLane="s_t_2" departPos="5.10" departSpeed="14.10" departDelay="0.00" arrival="96.00" arrivalLane="t_w_2" arrivalPos="186.40" arrivalSpeed="13.50" duration="96.00" routeLength="392.21" waitingTime="60.00" waitingCount="1" stopTime="0.00" timeLoss="66.90" rerouteNo="0" devices="tripinfo_flow_sw.0 fcd_flow_sw.0" vType="DEFAULT_VEHTYPE" speedFactor="1.02" vaporized=""/>
    <tripinfo id="flow_ne.1" depart="8.00" departLane="n_t_2" departPos="5.10" departSpeed="14.41" departDelay="0.80" arrival="97.00" arrivalLane="t_e_2" arrivalPos="186.40" arrivalSpeed="13.33" duration="89.00" routeLength="392.21" waitingTime="54.00" waitingCount="1" stopTime="0.00" timeLoss="61.06" rerouteNo="0" devices="tripinfo_flow_ne.1 fcd_flow_ne.1" vType="DEFAULT_VEHTYPE" speedFactor="1.04" vaporized=""/>
    <tripinfo id="flow_sw.1" depart="8.00" departLane="s_t_2" departPos="5.10" departSpeed="14.46" departDelay="0.80" arrival="97.00" arrivalLane="t_w_2" arrivalPos="186.40" arrivalSpeed="14.22" duration="89.00" routeLength="392.21" waitingTime="54.00" waitingCount="1" stopTime="0.00" timeLoss="61.17" rerouteNo="0" devices="tripinfo_flow_sw.1 fcd_flow_sw.1" vType="DEFAULT_VEHTYPE" speedFactor="1.04" vaporized=""/>
    <tripinfo id="flow_ne.2" depart="15.00" departLane="n_t_2" departPos="5.10" departSpeed="16.43" departDelay="0.60" arrival="99.00" arrivalLane="t_e_2" arrivalPos="186.40" arrivalSpeed="15.98" duration="84.00" routeLength="392.21" waitingTime="49.00" waitingCount="1" stopTime="0.00" timeLoss="59.05" rerouteNo="0" devices="tripinfo_flow_ne.2 fcd_flow_ne.2" vType="DEFAULT_VEHTYPE" speedFactor="1.18" vaporized=""/>
    <tripinfo id="flow_nw.9" depart="65.00" departLane="n_t_0" departPos="5.10" departSpeed="12.63" departDelay="0.20" arrival="99.00" arrivalLane="t_w_0" arrivalPos="186.40" arrivalSpeed="12.06" duration="34.00" routeLength="376.73" waitingTime="0.00" waitingCount="0" stopTime="0.00" timeLoss="3.08" rerouteNo="0" devices="tripinfo_flow_nw.9 fcd_flow_nw.9" vType="DEFAULT_VEHTYPE" speedFactor="0.91" vaporized=""/>
    <tripinfo id="flow_nw.10" depart="72.00" departLane="n_t_0" departPos="5.10" departSpeed="15.29" departDelay="0.00" arrival="101.00" arrivalLane="t_w_0" arrivalPos="186.40" arrivalSpeed="14.16" duration="29.00" routeLength="376.73" waitingTime="0.00" waitingCount="0" stopTime="0.00" timeLoss="3.55" rerouteNo="0" devices="tripinfo_flow_nw.10 fcd_flow_nw.10" vType="DEFAULT_VEHTYPE" speedFactor="1.10" vaporized=""/>
    <tripinfo id="flow_sw.2" depart="15.00" departLane="s_t_2" departPos="5.10" departSpeed="12.30" departDelay="0.60" arrival="102.00" arrivalLane="t_w_2" arrivalPos="186.40" arrivalSpeed="11.66" duration="87.00" routeLength="392.21" waitingTime="47.00" waitingCount="1" stopTime="0.00" timeLoss="54.10" rerouteNo="0" devices="tripinfo_flow_sw.2 fcd_flow_sw.2" vType="DEFAULT_VEHTYPE" speedFactor="0.89" vaporized=""/>
    <tripinfo id="flow_se.10" depart="72.00" departLane="s_t_0" departPos="5.10" departSpeed="14.18" departDelay="0.00" arrival="103.00" arrivalLane="t_e_0" arrivalPos="186.40" arrivalSpeed="13.34" duration="31.00" routeLength="376.73" waitingTime="0.00" waitingCount="0" stopTime="0.00" timeLoss="3.10" rerouteNo="0" devices="tripinfo_flow_se.10 fcd_flow_se.10" vType="DEFAULT_VEHTYPE" speedFactor="1.02" vaporized=""/>
    <tripinfo id="flow_ne.3" depart="22.00" departLane="n_t_2" departPos="5.10" departSpeed="13.57" departDelay="0.40" arrival="104.00" arrivalLane="t_e_2" arrivalPos="186.40" arrivalSpeed="13.56" duration="82.00" routeLength="392.21" waitingTime="42.00" waitingCount="1" stopTime="0.00" timeLoss="51.85" rerouteNo="0" devices="tripinfo_flow_ne.3 fcd_flow_ne.3" vType="DEFAULT_VEHTYPE" speedFactor="0.98" vaporized=""/>
    <tripinfo id="flow_sw.3" depart="22.00" departLane="s_t_2" departPos="5.10" departSpeed="14.17" departDelay="0.40" arrival="104.00" arrivalLane="t_w_2" arrivalPos="186.40" arrivalSpeed="13.29" duration="82.00" routeLength="392.21" waitingTime="43.00" waitingCount="1" stopTime="0.00" timeLoss="52.97" rerouteNo="0" devices="tripinfo_flow_sw.3 fcd_flow_sw.3" vType="DEFAULT_VEHTYPE" speedFactor="1.02" vaporized=""/>
    <tripinfo id="flow_ne.4" depart="29.00" departLane="n_t_2" departPos="5.10" departSpeed="13.13" departDelay="0.20" arrival="107.00" arrivalLane="t_e_2" arrivalPos="186.40" arrivalSpeed="12.51" duration="78.00" routeLength="392.21" waitingTime="35.00" waitingCount="1" stopTime="0.00" timeLoss="46.96" rerouteNo="0" devices="tripinfo_flow_ne.4 fcd_flow_ne.4" vType="DEFAULT_VEHTYPE" speedFactor="0.94" vaporized=""/>
    <tripinfo id="flow_en.3" depart="78.00" departLane="e_t_0" departPos="5.10" departSpeed="15.27" departDelay="0.86" arrival="107.00" arrivalLane="t_n_0" arrivalPos="186.40" arrivalSpeed="15.03" duration="29.00" routeLength="376.73" waitingTime="0.00" waitingCount="0" stopTime="0.00" timeLoss="3.50" rerouteNo="0" devices="tripinfo_flow_en.3 fcd_flow_en.3" vType="DEFAULT_VEHTYPE" speedFactor="1.10" vaporized=""/>
    <tripinfo id="flow_sw.4" depart="29.00" departLane="s_t_2" departPos="5.10" departSpeed="11.68" departDelay="0.20" arrival="108.00" arrivalLane="t_w_2" arrivalPos="186.40" arrivalSpeed="10.52" duration="79.00" routeLength="392.21" waitingTime="34.00" waitingCount="1" stopTime="0.00" timeLoss="44.50" rerouteNo="0" devices="tripinfo_flow_sw.4 fcd_flow_sw.4" vType="DEFAULT_VEHTYPE" speedFactor="0.84" vaporized=""/>
    <tripinfo id="flow_se.11" depart="80.00" departLane="s_t_0" departPos="5.10" departSpeed="15.64" departDelay="0.80" arrival="109.00" arrivalLane="t_e_0" arrivalPos="186.40" arrivalSpeed="14.75" duration="29.00" routeLength="376.73" waitingTime="0.00" waitingCount="0" stopTime="0.00" timeLoss="3.03" rerouteNo="0" devices="tripinfo_flow_se.11 fcd_flow_se.11" vType="DEFAULT_VEHTYPE" speedFactor="1.13" vaporized=""/>
    <tripinfo id="flow_ws.3" depart="78.00" departLane="w_t_0" departPos="5.10" departSpeed="12.83" departDelay="0.86" arrival="111.00" arrivalLane="t_s_0" arrivalPos="186.40" arrivalSpeed="12.54" duration="33.00" routeLength="376.73" waitingTime="0.00" waitingCount="0" stopTime="0.00" timeLoss="2.96" rerouteNo="0" devices="tripinfo_flow_ws.3 fcd_flow_ws.3" vType="DEFAULT_VEHTYPE" speedFactor="0.92" vaporized=""/>
    <tripinfo id="flow_sn.7" depart="51.00" departLane="s_t_1" departPos="5.10" departSpeed="13.14" departDelay="0.60" arrival="112.00" arrivalLane="t_n_1" arrivalPos="186.40" arrivalSpeed="12.15" duration="61.00" routeLength="394.90" waitingTime="23.00" waitingCount="1" stopTime="0.00" timeLoss="30.42" rerouteNo="0" devices="tripinfo_flow_sn.7 fcd_flow_sn.7" vType="DEFAULT_VEHTYPE" speedFactor="0.95" vaporized=""/>
    <tripinfo id="flow_ns.6" depart="44.00" departLane="n_t_1" departPos="5.10" departSpeed="12.01" departDelay="0.80" arrival="113.00" arrivalLane="t_s_1" arrivalPos="186.40" arrivalSpeed="11.33" duration="69.00" routeLength="394.90" waitingTime="29.00" waitingCount="1" stopTime="0.00" timeLoss="35.96" rerouteNo="0" devices="tripinfo_flow_ns.6 fcd_flow_ns.6" vType="DEFAULT_VEHTYPE" speedFactor="0.86" vaporized=""/>
    <tripinfo id="flow_sn.8" depart="58.00" departLane="s_t_1" departPos="5.10" departSpeed="14.53" departDelay="0.40" arrival="113.00" arrivalLane="t_n_1" arrivalPos="186.40" arrivalSpeed="13.67" duration="55.00" routeLength="394.90" waitingTime="20.00" waitingCount="1" stopTime="0.00" timeLoss="27.82" rerouteNo="0" devices="tripinfo_flow_sn.8 fcd_flow_sn.8" vType="DEFAULT_VEHTYPE" speedFactor="1.05" vaporized=""/>
    <tripinfo id="flow_nw.11" depart="80.00" departLane="n_t_0" departPos="5.10" departSpeed="12.55" departDelay="0.80" arrival="114.00" arrivalLane="t_w_0" arrivalPos="186.40" arrivalSpeed="12.40" duration="34.00" routeLength="376.73" waitingTime="0.00" waitingCount="0" stopTime="0.00" timeLoss="2.64" rerouteNo="0" devices="tripinfo_flow_nw.11 fcd_flow_nw.11" vType="DEFAULT_VEHTYPE" speedFactor="0.90" vaporized=""/>
    <tripinfo id="flow_ns.7" depart="51.00" departLane="n_t_1" departPos="5.10" departSpeed="12.79" departDelay="0.60" arrival="115.00" arrivalLane="t_s_1" arrivalPos="186.40" arrivalSpeed="12.33" duration="64.00" routeLength="394.90" waitingTime="24.00" waitingCount="1" stopTime="0.00" timeLoss="32.69" rerouteNo="0" devices="tripinfo_flow_ns.7 fcd_flow_ns.7" vType="DEFAULT_VEHTYPE" speedFactor="0.92" vaporized=""/>
    <tripinfo id="flow_sn.9" depart="65.00" departLane="s_t_1" departPos="5.10" departSpeed="15.41" departDelay="0.20" arrival="115.00" arrivalLane="t_n_1" arrivalPos="186.40" arrivalSpeed="14.98" duration="50.00" routeLength="394.90" waitingTime="13.00" waitingCount="1" stopTime="0.00" timeLoss="24.03" rerouteNo="0" devices="tripinfo_flow_sn.9 fcd_flow_sn.9" vType="DEFAULT_VEHTYPE" speedFactor="1.11" vaporized=""/>
    <tripinfo id="flow_nw.12" depart="87.00" departLane="n_t_0" departPos="5.10" departSpeed="16.17" departDelay="0.60" arrival="116.00" arrivalLane="t_w_0" arrivalPos="186.40" arrivalSpeed="15.50" duration="29.00" routeLength="376.73" waitingTime="0.00" waitingCount="0" stopTime="0.00" timeLoss="4.45" rerouteNo="0" devices="tripinfo_flow_nw.12 fcd_flow_nw.12" vType="DEFAULT_VEHTYPE" speedFactor="1.16" vaporized=""/>