<?xml version="1.0" encoding="UTF-8"?>

<!-- generated on 2025-08-18 16:46:57 by Eclipse SUMO GUI Version 1.16.0
<configuration xmlns:xsi="http://www.w3.org/2001/XMLSchema-instance" xsi:noNamespaceSchemaLocation="http://sumo.dlr.de/xsd/sumoConfiguration.xsd">

    <input>
        <net-file value="E:\txw\sumo-rl\nets\syc\1x1\Equal_entries_350_CT\15-85-Truck-Car\syc_4phases.net.xml"/>
        <route-files value="E:\txw\sumo-rl\nets\syc\1x1\Equal_entries_350_CT\15-85-Truck-Car\equal_entries_350_54_15-85-TC.rou.xml"/>
        <additional-files value="E:\txw\sumo-rl\nets\syc\1x1\Equal_entries_350_CT\15-85-Truck-Car\1x1_outputs.add.xml"/>
    </input>

    <output>
        <fcd-output value="E:\txw\sumo-rl\nets\syc\1x1\Equal_entries_350_CT\15-85-Truck-Car\output/fcd_output.xml"/>
        <tripinfo-output value="E:\txw\sumo-rl\nets\syc\1x1\Equal_entries_350_CT\15-85-Truck-Car\output/tripinfo.out.xml"/>
    </output>

    <time>
        <begin value="0"/>
        <end value="1000"/>
    </time>

</configuration>
-->

<meandata xmlns:xsi="http://www.w3.org/2001/XMLSchema-instance" xsi:noNamespaceSchemaLocation="http://sumo.dlr.de/xsd/meandata_file.xsd">
    <interval begin="0.00" end="10.00" id="1">
        <edge id="e_t" sampledSeconds="51.00" traveltime="14.97" overlapTraveltime="15.37" density="27.36" laneDensity="9.12" occupancy="4.56" waitingTime="0.00" timeLoss="3.90" speed="12.45" speedRelative="0.90" departed="6" arrived="0" entered="0" left="0" laneChangedFrom="0" laneChangedTo="0"/>
        <edge id="n_t" sampledSeconds="51.00" traveltime="14.52" overlapTraveltime="14.91" density="27.36" laneDensity="9.12" occupancy="4.56" waitingTime="0.00" timeLoss="3.57" speed="12.83" speedRelative="0.92" departed="6" arrived="0" entered="0" left="0" laneChangedFrom="0" laneChangedTo="0"/>
        <edge id="s_t" sampledSeconds="51.00" traveltime="14.48" overlapTraveltime="14.87" density="27.36" laneDensity="9.12" occupancy="4.56" waitingTime="0.00" timeLoss="2.68" speed="12.87" speedRelative="0.93" departed="6" arrived="0" entered="0" left="0" laneChangedFrom="0" laneChangedTo="0"/>
        <edge id="t_e" sampledSeconds="0.00" departed="0" arrived="0" entered="0" left="0" laneChangedFrom="0" laneChangedTo="0"/>
        <edge id="t_n" sampledSeconds="0.00" departed="0" arrived="0" entered="0" left="0" laneChangedFrom="0" laneChangedTo="0"/>
        <edge id="t_s" sampledSeconds="0.00" departed="0" arrived="0" entered="0" left="0" laneChangedFrom="0" laneChangedTo="0"/>
        <edge id="t_w" sampledSeconds="0.00" departed="0" arrived="0" entered="0" left="0" laneChangedFrom="0" laneChangedTo="0"/>
        <edge id="w_t" sampledSeconds="51.00" traveltime="15.46" overlapTraveltime="15.88" density="27.36" laneDensity="9.12" occupancy="4.56" waitingTime="0.00" timeLoss="6.83" speed="12.06" speedRelative="0.87" departed="6" arrived="0" entered="0" left="0" laneChangedFrom="0" laneChangedTo="0"/>
    </interval>
    <interval begin="10.00" end="20.00" id="1">
        <edge id="e_t" sampledSeconds="65.01" traveltime="16.82" overlapTraveltime="17.44" density="34.88" laneDensity="11.63" occupancy="5.70" waitingTime="2.00" timeLoss="12.23" speed="10.98" speedRelative="0.79" departed="3" arrived="0" entered="0" left="4" laneChangedFrom="0" laneChangedTo="0"/>
        <edge id="n_t" sampledSeconds="72.63" traveltime="21.32" overlapTraveltime="22.05" density="38.97" laneDensity="12.99" occupancy="6.42" waitingTime="7.00" timeLoss="23.09" speed="8.68" speedRelative="0.63" departed="3" arrived="0" entered="0" left="2" laneChangedFrom="0" laneChangedTo="0"/>
        <edge id="s_t" sampledSeconds="70.45" traveltime="19.70" overlapTraveltime="20.40" density="37.80" laneDensity="12.60" occupancy="6.22" waitingTime="7.00" timeLoss="20.36" speed="9.38" speedRelative="0.68" departed="3" arrived="0" entered="0" left="2" laneChangedFrom="0" laneChangedTo="0"/>
        <edge id="t_e" sampledSeconds="12.51" traveltime="15.44" overlapTraveltime="15.85" density="6.71" laneDensity="2.24" occupancy="1.02" waitingTime="0.00" timeLoss="2.40" speed="12.07" speedRelative="0.87" departed="0" arrived="0" entered="4" left="0" laneChangedFrom="0" laneChangedTo="0"/>
        <edge id="t_n" sampledSeconds="4.49" traveltime="19.61" overlapTraveltime="20.14" density="2.41" laneDensity="0.80" occupancy="0.33" waitingTime="0.00" timeLoss="1.47" speed="9.50" speedRelative="0.68" departed="0" arrived="0" entered="2" left="0" laneChangedFrom="0" laneChangedTo="0"/>
        <edge id="t_s" sampledSeconds="2.29" traveltime="21.61" overlapTraveltime="22.19" density="1.23" laneDensity="0.41" occupancy="0.17" waitingTime="0.00" timeLoss="0.77" speed="8.63" speedRelative="0.62" departed="0" arrived="0" entered="1" left="0" laneChangedFrom="0" laneChangedTo="0"/>
        <edge id="t_w" sampledSeconds="7.65" traveltime="17.78" overlapTraveltime="18.25" density="4.11" laneDensity="1.37" occupancy="0.58" waitingTime="0.00" timeLoss="1.86" speed="10.49" speedRelative="0.75" departed="0" arrived="0" entered="4" left="0" laneChangedFrom="0" laneChangedTo="0"/>
        <edge id="w_t" sampledSeconds="65.18" traveltime="16.04" overlapTraveltime="16.66" density="34.97" laneDensity="11.66" occupancy="5.72" waitingTime="0.00" timeLoss="12.51" speed="11.49" speedRelative="0.83" departed="3" arrived="0" entered="0" left="4" laneChangedFrom="0" laneChangedTo="0"/>
    </interval>
    <interval begin="20.00" end="30.00" id="1">
        <edge id="e_t" sampledSeconds="57.01" traveltime="24.00" overlapTraveltime="24.63" density="30.59" laneDensity="10.20" occupancy="5.04" waitingTime="20.00" timeLoss="25.43" speed="7.77" speedRelative="0.56" departed="3" arrived="0" entered="0" left="2" laneChangedFrom="0" laneChangedTo="0"/>
        <edge id="n_t" sampledSeconds="82.00" traveltime="32.12" overlapTraveltime="32.98" density="43.99" laneDensity="14.66" occupancy="7.33" waitingTime="39.00" timeLoss="45.43" speed="5.80" speedRelative="0.42" departed="3" arrived="0" entered="0" left="0" laneChangedFrom="0" laneChangedTo="0"/>
        <edge id="s_t" sampledSeconds="81.97" traveltime="35.60" overlapTraveltime="36.54" density="43.98" laneDensity="14.66" occupancy="7.29" waitingTime="42.00" timeLoss="49.86" speed="5.24" speedRelative="0.38" departed="3" arrived="0" entered="0" left="1" laneChangedFrom="0" laneChangedTo="0"/>
        <edge id="t_e" sampledSeconds="41.87" traveltime="13.41" overlapTraveltime="13.76" density="22.46" laneDensity="7.49" occupancy="3.70" waitingTime="0.00" timeLoss="2.98" speed="13.91" speedRelative="1.00" departed="0" arrived="2" entered="1" left="0" laneChangedFrom="0" laneChangedTo="0"/>
        <edge id="t_n" sampledSeconds="20.36" traveltime="14.47" overlapTraveltime="14.86" density="10.93" laneDensity="3.64" occupancy="1.80" waitingTime="0.00" timeLoss="1.74" speed="12.88" speedRelative="0.93" departed="0" arrived="0" entered="1" left="0" laneChangedFrom="0" laneChangedTo="0"/>
        <edge id="t_s" sampledSeconds="22.52" traveltime="15.61" overlapTraveltime="16.03" density="12.08" laneDensity="4.03" occupancy="1.95" waitingTime="0.00" timeLoss="4.00" speed="11.94" speedRelative="0.86" departed="0" arrived="0" entered="2" left="0" laneChangedFrom="0" laneChangedTo="0"/>
        <edge id="t_w" sampledSeconds="42.43" traveltime="14.36" overlapTraveltime="14.75" density="22.76" laneDensity="7.59" occupancy="3.78" waitingTime="0.00" timeLoss="3.18" speed="12.98" speedRelative="0.93" departed="0" arrived="0" entered="1" left="0" laneChangedFrom="0" laneChangedTo="0"/>
        <edge id="w_t" sampledSeconds="54.86" traveltime="23.12" overlapTraveltime="23.64" density="29.43" laneDensity="9.81" occupancy="4.86" waitingTime="20.00" timeLoss="25.36" speed="8.10" speedRelative="0.58" departed="3" arrived="0" entered="0" left="2" laneChangedFrom="0" laneChangedTo="0"/>
    </interval>
    <interval begin="30.00" end="40.00" id="1">
        <edge id="e_t" sampledSeconds="66.00" traveltime="27.37" overlapTraveltime="28.44" density="35.41" laneDensity="11.80" occupancy="5.87" waitingTime="27.00" timeLoss="33.33" speed="6.73" speedRelative="0.48" departed="3" arrived="0" entered="0" left="1" laneChangedFrom="0" laneChangedTo="0"/>
        <edge id="n_t" sampledSeconds="96.40" traveltime="44.77" overlapTraveltime="45.64" density="51.72" laneDensity="17.24" occupancy="8.54" waitingTime="56.00" timeLoss="67.28" speed="4.19" speedRelative="0.30" departed="3" arrived="0" entered="0" left="2" laneChangedFrom="0" laneChangedTo="0"/>
        <edge id="s_t" sampledSeconds="96.00" traveltime="41.96" overlapTraveltime="43.09" density="51.50" laneDensity="17.17" occupancy="8.58" waitingTime="60.00" timeLoss="64.79" speed="4.44" speedRelative="0.32" departed="3" arrived="0" entered="0" left="0" laneChangedFrom="0" laneChangedTo="0"/>
        <edge id="t_e" sampledSeconds="24.25" traveltime="13.85" overlapTraveltime="14.17" density="13.01" laneDensity="4.34" occupancy="2.09" waitingTime="0.00" timeLoss="2.03" speed="13.51" speedRelative="0.97" departed="0" arrived="3" entered="1" left="0" laneChangedFrom="0" laneChangedTo="0"/>
        <edge id="t_n" sampledSeconds="16.03" traveltime="14.70" overlapTraveltime="15.09" density="8.60" laneDensity="2.87" occupancy="1.39" waitingTime="0.00" timeLoss="1.41" speed="12.69" speedRelative="0.91" departed="0" arrived="2" entered="0" left="0" laneChangedFrom="0" laneChangedTo="0"/>
        <edge id="t_s" sampledSeconds="19.52" traveltime="13.28" overlapTraveltime="13.66" density="10.47" laneDensity="3.49" occupancy="1.71" waitingTime="0.00" timeLoss="1.92" speed="14.02" speedRelative="1.01" departed="0" arrived="2" entered="0" left="0" laneChangedFrom="0" laneChangedTo="0"/>
        <edge id="t_w" sampledSeconds="30.72" traveltime="14.21" overlapTraveltime="14.55" density="16.48" laneDensity="5.49" occupancy="2.65" waitingTime="0.00" timeLoss="2.20" speed="13.15" speedRelative="0.95" departed="0" arrived="5" entered="2" left="0" laneChangedFrom="0" laneChangedTo="0"/>
        <edge id="w_t" sampledSeconds="65.86" traveltime="27.65" overlapTraveltime="28.70" density="35.33" laneDensity="11.78" occupancy="5.81" waitingTime="27.00" timeLoss="35.36" speed="6.67" speedRelative="0.48" departed="3" arrived="0" entered="0" left="2" laneChangedFrom="0" laneChangedTo="0"/>
    </interval>
    <interval begin="40.00" end="50.00" id="1">
        <edge id="e_t" sampledSeconds="57.91" traveltime="22.71" overlapTraveltime="23.71" density="31.07" laneDensity="10.36" occupancy="5.01" waitingTime="8.00" timeLoss="22.76" speed="8.07" speedRelative="0.58" departed="3" arrived="0" entered="0" left="4" laneChangedFrom="0" laneChangedTo="0"/>
        <edge id="n_t" sampledSeconds="110.00" traveltime="60.31" overlapTraveltime="61.93" density="59.01" laneDensity="19.67" occupancy="9.84" waitingTime="79.00" timeLoss="81.56" speed="3.09" speedRelative="0.22" departed="3" arrived="0" entered="0" left="0" laneChangedFrom="0" laneChangedTo="0"/>
        <edge id="s_t" sampledSeconds="111.90" traveltime="52.69" overlapTraveltime="53.87" density="60.03" laneDensity="20.01" occupancy="9.96" waitingTime="76.00" timeLoss="84.58" speed="3.55" speedRelative="0.26" departed="3" arrived="0" entered="0" left="1" laneChangedFrom="0" laneChangedTo="0"/>
        <edge id="t_e" sampledSeconds="14.41" traveltime="16.25" overlapTraveltime="16.67" density="7.73" laneDensity="2.58" occupancy="1.25" waitingTime="0.00" timeLoss="1.79" speed="11.48" speedRelative="0.83" departed="0" arrived="1" entered="1" left="0" laneChangedFrom="0" laneChangedTo="0"/>
        <edge id="t_n" sampledSeconds="29.87" traveltime="15.86" overlapTraveltime="16.26" density="16.02" laneDensity="5.34" occupancy="2.53" waitingTime="0.00" timeLoss="3.48" speed="11.77" speedRelative="0.85" departed="0" arrived="1" entered="5" left="0" laneChangedFrom="0" laneChangedTo="0"/>
        <edge id="t_s" sampledSeconds="23.96" traveltime="15.20" overlapTraveltime="15.55" density="12.85" laneDensity="4.28" occupancy="2.03" waitingTime="0.00" timeLoss="2.95" speed="12.31" speedRelative="0.89" departed="0" arrived="1" entered="4" left="0" laneChangedFrom="0" laneChangedTo="0"/>
        <edge id="t_w" sampledSeconds="19.00" traveltime="14.40" overlapTraveltime="14.80" density="10.19" laneDensity="3.40" occupancy="1.68" waitingTime="0.00" timeLoss="1.78" speed="12.93" speedRelative="0.93" departed="0" arrived="1" entered="0" left="0" laneChangedFrom="0" laneChangedTo="0"/>
        <edge id="w_t" sampledSeconds="54.65" traveltime="21.81" overlapTraveltime="22.58" density="29.32" laneDensity="9.77" occupancy="4.78" waitingTime="10.00" timeLoss="21.17" speed="8.48" speedRelative="0.61" departed="3" arrived="0" entered="0" left="3" laneChangedFrom="0" laneChangedTo="0"/>
    </interval>
    <interval begin="50.00" end="60.00" id="1">
        <edge id="e_t" sampledSeconds="56.94" traveltime="23.12" overlapTraveltime="23.86" density="30.54" laneDensity="10.18" occupancy="5.02" waitingTime="16.00" timeLoss="22.55" speed="8.02" speedRelative="0.58" departed="0" arrived="0" entered="0" left="2" laneChangedFrom="0" laneChangedTo="0"/>
        <edge id="n_t" sampledSeconds="135.89" traveltime="51.11" overlapTraveltime="52.31" density="72.90" laneDensity="24.30" occupancy="12.11" waitingTime="95.00" timeLoss="100.21" speed="3.66" speedRelative="0.26" departed="0" arrived="0" entered="0" left="1" laneChangedFrom="0" laneChangedTo="0"/>
        <edge id="s_t" sampledSeconds="131.91" traveltime="64.16" overlapTraveltime="65.44" density="70.77" laneDensity="23.59" occupancy="11.76" waitingTime="99.00" timeLoss="101.96" speed="2.92" speedRelative="0.21" departed="0" arrived="0" entered="0" left="1" laneChangedFrom="0" laneChangedTo="0"/>
        <edge id="t_e" sampledSeconds="16.23" traveltime="14.90" overlapTraveltime="15.30" density="8.70" laneDensity="2.90" occupancy="1.40" waitingTime="0.00" timeLoss="1.85" speed="12.51" speedRelative="0.90" departed="0" arrived="1" entered="1" left="0" laneChangedFrom="0" laneChangedTo="0"/>
        <edge id="t_n" sampledSeconds="55.05" traveltime="15.59" overlapTraveltime="16.00" density="29.53" laneDensity="9.84" occupancy="4.86" waitingTime="0.00" timeLoss="6.38" speed="11.96" speedRelative="0.86" departed="0" arrived="2" entered="2" left="0" laneChangedFrom="0" laneChangedTo="0"/>
        <edge id="t_s" sampledSeconds="54.67" traveltime="15.04" overlapTraveltime="15.44" density="29.33" laneDensity="9.78" occupancy="4.79" waitingTime="0.00" timeLoss="5.18" speed="12.40" speedRelative="0.89" departed="0" arrived="2" entered="3" left="0" laneChangedFrom="0" laneChangedTo="0"/>
        <edge id="t_w" sampledSeconds="6.25" traveltime="15.94" overlapTraveltime="16.11" density="3.36" laneDensity="1.12" occupancy="0.51" waitingTime="0.00" timeLoss="1.10" speed="11.88" speedRelative="0.86" departed="0" arrived="1" entered="1" left="0" laneChangedFrom="0" laneChangedTo="0"/>
        <edge id="w_t" sampledSeconds="56.29" traveltime="22.90" overlapTraveltime="23.62" density="30.20" laneDensity="10.07" occupancy="4.97" waitingTime="17.00" timeLoss="22.20" speed="8.10" speedRelative="0.58" departed="0" arrived="0" entered="0" left="2" laneChangedFrom="0" laneChangedTo="0"/>
    </interval>
    <interval begin="60.00" end="70.00" id="1">
        <edge id="e_t" sampledSeconds="64.88" traveltime="25.16" overlapTraveltime="25.97" density="34.81" laneDensity="11.60" occupancy="5.73" waitingTime="23.00" timeLoss="30.10" speed="7.37" speedRelative="0.53" departed="6" arrived="0" entered="0" left="2" laneChangedFrom="0" laneChangedTo="0"/>
        <edge id="n_t" sampledSeconds="147.56" traveltime="75.61" overlapTraveltime="76.95" density="79.16" laneDensity="26.39" occupancy="13.16" waitingTime="115.00" timeLoss="120.31" speed="2.49" speedRelative="0.18" departed="6" arrived="0" entered="0" left="1" laneChangedFrom="0" laneChangedTo="0"/>
        <edge id="s_t" sampledSeconds="151.22" traveltime="68.32" overlapTraveltime="69.76" density="81.13" laneDensity="27.04" occupancy="13.48" waitingTime="115.00" timeLoss="120.01" speed="2.74" speedRelative="0.20" departed="6" arrived="0" entered="0" left="1" laneChangedFrom="0" laneChangedTo="0"/>
        <edge id="t_e" sampledSeconds="8.74" traveltime="14.66" overlapTraveltime="14.98" density="4.69" laneDensity="1.56" occupancy="0.73" waitingTime="0.00" timeLoss="1.19" speed="12.78" speedRelative="0.92" departed="0" arrived="1" entered="1" left="0" laneChangedFrom="0" laneChangedTo="0"/>
        <edge id="t_n" sampledSeconds="33.88" traveltime="15.01" overlapTraveltime="15.39" density="18.18" laneDensity="6.06" occupancy="2.93" waitingTime="0.00" timeLoss="3.06" speed="12.44" speedRelative="0.90" departed="0" arrived="4" entered="2" left="0" laneChangedFrom="0" laneChangedTo="0"/>
        <edge id="t_s" sampledSeconds="34.36" traveltime="15.11" overlapTraveltime="15.50" density="18.43" laneDensity="6.14" occupancy="2.94" waitingTime="0.00" timeLoss="3.54" speed="12.35" speedRelative="0.89" departed="0" arrived="4" entered="2" left="0" laneChangedFrom="0" laneChangedTo="0"/>
        <edge id="t_w" sampledSeconds="15.85" traveltime="16.44" overlapTraveltime="16.88" density="8.50" laneDensity="2.83" occupancy="1.38" waitingTime="0.00" timeLoss="1.99" speed="11.34" speedRelative="0.82" departed="0" arrived="0" entered="1" left="0" laneChangedFrom="0" laneChangedTo="0"/>
        <edge id="w_t" sampledSeconds="63.50" traveltime="25.26" overlapTraveltime="25.97" density="34.07" laneDensity="11.36" occupancy="5.61" waitingTime="24.00" timeLoss="28.99" speed="7.37" speedRelative="0.53" departed="6" arrived="0" entered="0" left="2" laneChangedFrom="0" laneChangedTo="0"/>
    </interval>
    <interval begin="70.00" end="80.00" id="1">
        <edge id="e_t" sampledSeconds="105.71" traveltime="23.41" overlapTraveltime="24.09" density="56.71" laneDensity="18.90" occupancy="9.41" waitingTime="36.00" timeLoss="45.01" speed="7.94" speedRelative="0.57" departed="3" arrived="0" entered="0" left="1" laneChangedFrom="0" laneChangedTo="0"/>
        <edge id="n_t" sampledSeconds="192.99" traveltime="45.79" overlapTraveltime="46.90" density="103.54" laneDensity="34.51" occupancy="17.16" waitingTime="120.00" timeLoss="136.89" speed="4.08" speedRelative="0.29" departed="3" arrived="0" entered="0" left="3" laneChangedFrom="0" laneChangedTo="0"/>
        <edge id="s_t" sampledSeconds="194.01" traveltime="45.47" overlapTraveltime="46.64" density="104.08" laneDensity="34.69" occupancy="17.26" waitingTime="120.00" timeLoss="137.39" speed="4.10" speedRelative="0.30" departed="3" arrived="0" entered="0" left="3" laneChangedFrom="0" laneChangedTo="0"/>
        <edge id="t_e" sampledSeconds="11.34" traveltime="17.51" overlapTraveltime="17.98" density="6.08" laneDensity="2.03" occupancy="0.98" waitingTime="0.00" timeLoss="1.56" speed="10.64" speedRelative="0.77" departed="0" arrived="0" entered="1" left="0" laneChangedFrom="0" laneChangedTo="0"/>
        <edge id="t_n" sampledSeconds="25.41" traveltime="14.29" overlapTraveltime="14.70" density="13.63" laneDensity="4.54" occupancy="2.21" waitingTime="0.00" timeLoss="1.84" speed="13.02" speedRelative="0.94" departed="0" arrived="1" entered="1" left="0" laneChangedFrom="0" laneChangedTo="0"/>
        <edge id="t_s" sampledSeconds="22.60" traveltime="14.49" overlapTraveltime="14.88" density="12.12" laneDensity="4.04" occupancy="1.98" waitingTime="0.00" timeLoss="1.58" speed="12.87" speedRelative="0.93" departed="0" arrived="1" entered="1" left="0" laneChangedFrom="0" laneChangedTo="0"/>
        <edge id="t_w" sampledSeconds="15.34" traveltime="14.68" overlapTraveltime="15.06" density="8.23" laneDensity="2.74" occupancy="1.30" waitingTime="0.00" timeLoss="1.66" speed="12.71" speedRelative="0.91" departed="0" arrived="2" entered="1" left="0" laneChangedFrom="0" laneChangedTo="0"/>
        <edge id="w_t" sampledSeconds="105.76" traveltime="24.68" overlapTraveltime="25.37" density="56.74" laneDensity="18.91" occupancy="9.42" waitingTime="35.00" timeLoss="45.12" speed="7.54" speedRelative="0.54" departed="3" arrived="0" entered="0" left="1" laneChangedFrom="0" laneChangedTo="0"/>
    </interval>
    <interval begin="80.00" end="90.00" id="1">
        <edge id="e_t" sampledSeconds="114.84" traveltime="41.10" overlapTraveltime="41.98" density="61.61" laneDensity="20.54" occupancy="10.20" waitingTime="61.00" timeLoss="76.37" speed="4.56" speedRelative="0.33" departed="3" arrived="0" entered="0" left="2" laneChangedFrom="0" laneChangedTo="0"/>
        <edge id="n_t" sampledSeconds="172.10" traveltime="54.10" overlapTraveltime="53.99" density="92.33" laneDensity="30.78" occupancy="15.23" waitingTime="88.00" timeLoss="125.73" speed="3.55" speedRelative="0.26" departed="3" arrived="0" entered="0" left="6" laneChangedFrom="0" laneChangedTo="0"/>
        <edge id="s_t" sampledSeconds="170.49" traveltime="53.03" overlapTraveltime="52.65" density="91.47" laneDensity="30.49" occupancy="15.05" waitingTime="87.00" timeLoss="125.17" speed="3.64" speedRelative="0.26" departed="3" arrived="0" entered="0" left="7" laneChangedFrom="0" laneChangedTo="0"/>
        <edge id="t_e" sampledSeconds="19.99" traveltime="15.92" overlapTraveltime="16.34" density="10.72" laneDensity="3.57" occupancy="1.74" waitingTime="0.00" timeLoss="2.41" speed="11.71" speedRelative="0.84" departed="0" arrived="1" entered="1" left="0" laneChangedFrom="0" laneChangedTo="0"/>
        <edge id="t_n" sampledSeconds="43.80" traveltime="15.09" overlapTraveltime="15.47" density="23.50" laneDensity="7.83" occupancy="3.73" waitingTime="0.00" timeLoss="4.60" speed="12.38" speedRelative="0.89" departed="0" arrived="2" entered="7" left="0" laneChangedFrom="0" laneChangedTo="0"/>
        <edge id="t_s" sampledSeconds="42.90" traveltime="15.14" overlapTraveltime="15.53" density="23.02" laneDensity="7.67" occupancy="3.65" waitingTime="0.00" timeLoss="3.64" speed="12.33" speedRelative="0.89" departed="0" arrived="2" entered="7" left="0" laneChangedFrom="0" laneChangedTo="0"/>
        <edge id="t_w" sampledSeconds="13.80" traveltime="15.22" overlapTraveltime="15.63" density="7.41" laneDensity="2.47" occupancy="1.19" waitingTime="0.00" timeLoss="2.09" speed="12.25" speedRelative="0.88" departed="0" arrived="0" entered="1" left="0" laneChangedFrom="0" laneChangedTo="0"/>
        <edge id="w_t" sampledSeconds="116.75" traveltime="37.53" overlapTraveltime="38.44" density="62.64" laneDensity="20.88" occupancy="10.36" waitingTime="61.00" timeLoss="72.90" speed="4.98" speedRelative="0.36" departed="3" arrived="0" entered="0" left="2" laneChangedFrom="0" laneChangedTo="0"/>
    </interval>
    <interval begin="90.00" end="100.00" id="1">
        <edge id="e_t" sampledSeconds="126.00" traveltime="60.53" overlapTraveltime="62.16" density="67.60" laneDensity="22.53" occupancy="11.27" waitingTime="91.00" timeLoss="97.80" speed="3.08" speedRelative="0.22" departed="3" arrived="0" entered="0" left="0" laneChangedFrom="0" laneChangedTo="0"/>
        <edge id="n_t" sampledSeconds="134.80" traveltime="52.30" overlapTraveltime="52.05" density="72.32" laneDensity="24.11" occupancy="11.95" waitingTime="93.00" timeLoss="99.05" speed="3.68" speedRelative="0.26" departed="3" arrived="0" entered="0" left="4" laneChangedFrom="0" laneChangedTo="0"/>
        <edge id="s_t" sampledSeconds="132.57" traveltime="55.50" overlapTraveltime="55.73" density="71.12" laneDensity="23.71" occupancy="11.80" waitingTime="93.00" timeLoss="99.79" speed="3.43" speedRelative="0.25" departed="3" arrived="0" entered="0" left="2" laneChangedFrom="0" laneChangedTo="0"/>
        <edge id="t_e" sampledSeconds="23.93" traveltime="14.91" overlapTraveltime="15.31" density="12.84" laneDensity="4.28" occupancy="2.08" waitingTime="0.00" timeLoss="2.19" speed="12.50" speedRelative="0.90" departed="0" arrived="1" entered="1" left="0" laneChangedFrom="0" laneChangedTo="0"/>
        <edge id="t_n" sampledSeconds="94.56" traveltime="15.11" overlapTraveltime="15.49" density="50.73" laneDensity="16.91" occupancy="8.32" waitingTime="0.00" timeLoss="10.86" speed="12.35" speedRelative="0.89" departed="0" arrived="4" entered="4" left="0" laneChangedFrom="0" laneChangedTo="0"/>
        <edge id="t_s" sampledSeconds="90.84" traveltime="15.63" overlapTraveltime="16.02" density="48.73" laneDensity="16.24" occupancy="8.01" waitingTime="0.00" timeLoss="10.08" speed="11.95" speedRelative="0.86" departed="0" arrived="3" entered="4" left="0" laneChangedFrom="0" laneChangedTo="0"/>
        <edge id="t_w" sampledSeconds="21.31" traveltime="15.46" overlapTraveltime="15.82" density="11.43" laneDensity="3.81" occupancy="1.85" waitingTime="0.00" timeLoss="1.99" speed="12.10" speedRelative="0.87" departed="0" arrived="1" entered="1" left="0" laneChangedFrom="0" laneChangedTo="0"/>
        <edge id="w_t" sampledSeconds="126.00" traveltime="60.91" overlapTraveltime="62.55" density="67.60" laneDensity="22.53" occupancy="11.27" waitingTime="90.00" timeLoss="100.11" speed="3.06" speedRelative="0.22" departed="3" arrived="0" entered="0" left="0" laneChangedFrom="0" laneChangedTo="0"/>
    </interval>
    <interval begin="100.00" end="110.00" id="1">
        <edge id="e_t" sampledSeconds="141.19" traveltime="71.54" overlapTraveltime="72.89" density="75.75" laneDensity="25.25" occupancy="12.59" waitingTime="110.00" timeLoss="113.27" speed="2.63" speedRelative="0.19" departed="3" arrived="0" entered="0" left="1" laneChangedFrom="0" laneChangedTo="0"/>
        <edge id="n_t" sampledSeconds="131.89" traveltime="69.90" overlapTraveltime="71.24" density="70.76" laneDensity="23.59" occupancy="11.75" waitingTime="103.00" timeLoss="106.49" speed="2.69" speedRelative="0.19" departed="3" arrived="0" entered="0" left="1" laneChangedFrom="0" laneChangedTo="0"/>
        <edge id="s_t" sampledSeconds="133.51" traveltime="63.41" overlapTraveltime="64.11" density="71.63" laneDensity="23.88" occupancy="11.88" waitingTime="101.00" timeLoss="106.04" speed="2.99" speedRelative="0.21" departed="3" arrived="0" entered="0" left="2" laneChangedFrom="0" laneChangedTo="0"/>
        <edge id="t_e" sampledSeconds="16.14" traveltime="15.57" overlapTraveltime="15.95" density="8.66" laneDensity="2.89" occupancy="1.37" waitingTime="0.00" timeLoss="1.98" speed="12.00" speedRelative="0.86" departed="0" arrived="2" entered="1" left="0" laneChangedFrom="0" laneChangedTo="0"/>
        <edge id="t_n" sampledSeconds="60.53" traveltime="15.43" overlapTraveltime="15.79" density="32.47" laneDensity="10.82" occupancy="5.27" waitingTime="0.00" timeLoss="8.20" speed="12.12" speedRelative="0.87" departed="0" arrived="7" entered="2" left="0" laneChangedFrom="0" laneChangedTo="0"/>
        <edge id="t_s" sampledSeconds="74.15" traveltime="15.61" overlapTraveltime="16.00" density="39.78" laneDensity="13.26" occupancy="6.48" waitingTime="0.00" timeLoss="11.01" speed="11.96" speedRelative="0.86" departed="0" arrived="7" entered="2" left="0" laneChangedFrom="0" laneChangedTo="0"/>
        <edge id="t_w" sampledSeconds="17.38" traveltime="15.94" overlapTraveltime="16.36" density="9.32" laneDensity="3.11" occupancy="1.51" waitingTime="0.00" timeLoss="1.73" speed="11.70" speedRelative="0.84" departed="0" arrived="2" entered="1" left="0" laneChangedFrom="0" laneChangedTo="0"/>
        <edge id="w_t" sampledSeconds="140.88" traveltime="73.32" overlapTraveltime="74.65" density="75.58" laneDensity="25.19" occupancy="12.56" waitingTime="110.00" timeLoss="115.63" speed="2.56" speedRelative="0.18" departed="3" arrived="0" entered="0" left="1" laneChangedFrom="0" laneChangedTo="0"/>
    </interval>
    <interval begin="110.00" end="120.00" id="1">
        <edge id="e_t" sampledSeconds="165.82" traveltime="76.77" overlapTraveltime="78.50" density="88.96" laneDensity="29.65" occupancy="14.77" waitingTime="129.00" timeLoss="136.37" speed="2.44" speedRelative="0.18" departed="0" arrived="0" entered="0" left="1" laneChangedFrom="0" laneChangedTo="0"/>
        <edge id="n_t" sampledSeconds="149.97" traveltime="61.33" overlapTraveltime="62.20" density="80.46" laneDensity="26.82" occupancy="13.25" waitingTime="94.00" timeLoss="116.71" speed="3.08" speedRelative="0.22" departed="0" arrived="0" entered="0" left="4" laneChangedFrom="0" laneChangedTo="0"/>
        <edge id="s_t" sampledSeconds="144.98" traveltime="62.66" overlapTraveltime="63.42" density="77.78" laneDensity="25.93" occupancy="12.84" waitingTime="95.00" timeLoss="113.78" speed="3.02" speedRelative="0.22" departed="0" arrived="0" entered="0" left="3" laneChangedFrom="0" laneChangedTo="0"/>
        <edge id="t_e" sampledSeconds="17.19" traveltime="14.16" overlapTraveltime="14.52" density="9.22" laneDensity="3.07" occupancy="1.46" waitingTime="0.00" timeLoss="2.06" speed="13.18" speedRelative="0.95" departed="0" arrived="1" entered="2" left="0" laneChangedFrom="0" laneChangedTo="0"/>
        <edge id="t_n" sampledSeconds="21.35" traveltime="15.67" overlapTraveltime="16.05" density="11.45" laneDensity="3.82" occupancy="1.86" waitingTime="0.00" timeLoss="1.86" speed="11.93" speedRelative="0.86" departed="0" arrived="2" entered="1" left="0" laneChangedFrom="0" laneChangedTo="0"/>
        <edge id="t_s" sampledSeconds="18.78" traveltime="15.00" overlapTraveltime="15.31" density="10.08" laneDensity="3.36" occupancy="1.60" waitingTime="0.00" timeLoss="2.35" speed="12.50" speedRelative="0.90" departed="0" arrived="4" entered="1" left="0" laneChangedFrom="0" laneChangedTo="0"/>
        <edge id="t_w" sampledSeconds="13.43" traveltime="15.63" overlapTraveltime="16.03" density="7.20" laneDensity="2.40" occupancy="1.13" waitingTime="0.00" timeLoss="1.72" speed="11.94" speedRelative="0.86" departed="0" arrived="1" entered="2" left="0" laneChangedFrom="0" laneChangedTo="0"/>