<?xml version="1.0" encoding="UTF-8"?>

<!-- generated on 2025-08-18 16:46:57 by Eclipse SUMO GUI Version 1.16.0
<configuration xmlns:xsi="http://www.w3.org/2001/XMLSchema-instance" xsi:noNamespaceSchemaLocation="http://sumo.dlr.de/xsd/sumoConfiguration.xsd">

    <input>
        <net-file value="E:\txw\sumo-rl\nets\syc\1x1\Equal_entries_350_CT\15-85-Truck-Car\syc_4phases.net.xml"/>
        <route-files value="E:\txw\sumo-rl\nets\syc\1x1\Equal_entries_350_CT\15-85-Truck-Car\equal_entries_350_54_15-85-TC.rou.xml"/>
        <additional-files value="E:\txw\sumo-rl\nets\syc\1x1\Equal_entries_350_CT\15-85-Truck-Car\1x1_outputs.add.xml"/>
    </input>

    <output>
        <fcd-output value="E:\txw\sumo-rl\nets\syc\1x1\Equal_entries_350_CT\15-85-Truck-Car\output/fcd_output.xml"/>
        <tripinfo-output value="E:\txw\sumo-rl\nets\syc\1x1\Equal_entries_350_CT\15-85-Truck-Car\output/tripinfo.out.xml"/>
    </output>

    <time>
        <begin value="0"/>
        <end value="1000"/>
    </time>

</configuration>
-->

<tripinfos xmlns:xsi="http://www.w3.org/2001/XMLSchema-instance" xsi:noNamespaceSchemaLocation="http://sumo.dlr.de/xsd/tripinfo_file.xsd">
    <tripinfo id="flow_se_car.0" depart="0.00" departLane="s_t_0" departPos="5.10" departSpeed="15.15" departDelay="0.00" arrival="29.00" arrivalLane="t_e_0" arrivalPos="186.40" arrivalSpeed="14.47" duration="29.00" routeLength="376.73" waitingTime="0.00" waitingCount="0" stopTime="0.00" timeLoss="3.05" rerouteNo="0" devices="tripinfo_flow_se_car.0 fcd_flow_se_car.0" vType="car" speedFactor="1.09" vaporized=""/>
    <tripinfo id="flow_we_car.0" depart="0.00" departLane="w_t_1" departPos="5.10" departSpeed="14.54" departDelay="0.00" arrival="29.00" arrivalLane="t_e_1" arrivalPos="186.40" arrivalSpeed="13.84" duration="29.00" routeLength="394.90" waitingTime="0.00" waitingCount="0" stopTime="0.00" timeLoss="1.22" rerouteNo="0" devices="tripinfo_flow_we_car.0 fcd_flow_we_car.0" vType="car" speedFactor="1.05" vaporized=""/>
    <tripinfo id="flow_nw_car.0" depart="0.00" departLane="n_t_0" departPos="5.10" departSpeed="14.03" departDelay="0.00" arrival="31.00" arrivalLane="t_w_0" arrivalPos="186.40" arrivalSpeed="13.68" duration="31.00" routeLength="376.73" waitingTime="0.00" waitingCount="0" stopTime="0.00" timeLoss="3.62" rerouteNo="0" devices="tripinfo_flow_nw_car.0 fcd_flow_nw_car.0" vType="car" speedFactor="1.01" vaporized=""/>
    <tripinfo id="flow_we_truck.0" depart="1.00" departLane="w_t_1" departPos="5.10" departSpeed="10.99" departDelay="1.00" arrival="31.00" arrivalLane="t_e_1" arrivalPos="186.40" arrivalSpeed="15.01" duration="30.00" routeLength="394.90" waitingTime="0.00" waitingCount="0" stopTime="0.00" timeLoss="3.76" rerouteNo="0" devices="tripinfo_flow_we_truck.0 fcd_flow_we_truck.0" vType="truck" speedFactor="1.12" vaporized=""/>
    <tripinfo id="flow_ew_car.0" depart="0.00" departLane="e_t_1" departPos="5.10" departSpeed="13.77" departDelay="0.00" arrival="31.00" arrivalLane="t_w_1" arrivalPos="186.40" arrivalSpeed="13.56" duration="31.00" routeLength="394.90" waitingTime="0.00" waitingCount="0" stopTime="0.00" timeLoss="1.46" rerouteNo="0" devices="tripinfo_flow_ew_car.0 fcd_flow_ew_car.0" vType="car" speedFactor="0.99" vaporized=""/>
    <tripinfo id="flow_en_car.0" depart="0.00" departLane="e_t_0" departPos="5.10" departSpeed="14.14" departDelay="0.00" arrival="31.00" arrivalLane="t_n_0" arrivalPos="186.40" arrivalSpeed="12.99" duration="31.00" routeLength="376.73" waitingTime="0.00" waitingCount="0" stopTime="0.00" timeLoss="3.03" rerouteNo="0" devices="tripinfo_flow_en_car.0 fcd_flow_en_car.0" vType="car" speedFactor="1.02" vaporized=""/>
    <tripinfo id="flow_nw_truck.0" depart="1.00" departLane="n_t_0" departPos="5.10" departSpeed="10.89" departDelay="1.00" arrival="33.00" arrivalLane="t_w_0" arrivalPos="186.40" arrivalSpeed="14.96" duration="32.00" routeLength="376.73" waitingTime="0.00" waitingCount="0" stopTime="0.00" timeLoss="5.81" rerouteNo="0" devices="tripinfo_flow_nw_truck.0 fcd_flow_nw_truck.0" vType="truck" speedFactor="1.08" vaporized=""/>
    <tripinfo id="flow_se_truck.0" depart="1.00" departLane="s_t_0" departPos="5.10" departSpeed="12.83" departDelay="1.00" arrival="33.00" arrivalLane="t_e_0" arrivalPos="186.40" arrivalSpeed="13.42" duration="32.00" routeLength="376.73" waitingTime="0.00" waitingCount="0" stopTime="0.00" timeLoss="4.06" rerouteNo="0" devices="tripinfo_flow_se_truck.0 fcd_flow_se_truck.0" vType="truck" speedFactor="1.03" vaporized=""/>
    <tripinfo id="flow_ws_car.0" depart="0.00" departLane="w_t_0" departPos="5.10" departSpeed="13.00" departDelay="0.00" arrival="33.00" arrivalLane="t_s_0" arrivalPos="186.40" arrivalSpeed="11.84" duration="33.00" routeLength="376.73" waitingTime="0.00" waitingCount="0" stopTime="0.00" timeLoss="3.19" rerouteNo="0" devices="tripinfo_flow_ws_car.0 fcd_flow_ws_car.0" vType="car" speedFactor="0.94" vaporized=""/>
    <tripinfo id="flow_ew_truck.0" depart="1.00" departLane="e_t_1" departPos="5.10" departSpeed="10.38" departDelay="1.00" arrival="34.00" arrivalLane="t_w_1" arrivalPos="186.40" arrivalSpeed="12.45" duration="33.00" routeLength="394.90" waitingTime="0.00" waitingCount="0" stopTime="0.00" timeLoss="2.02" rerouteNo="0" devices="tripinfo_flow_ew_truck.0 fcd_flow_ew_truck.0" vType="truck" speedFactor="0.93" vaporized=""/>
    <tripinfo id="flow_en_truck.0" depart="1.00" departLane="e_t_0" departPos="5.10" departSpeed="10.38" departDelay="1.00" arrival="34.00" arrivalLane="t_n_0" arrivalPos="186.40" arrivalSpeed="12.78" duration="33.00" routeLength="376.73" waitingTime="0.00" waitingCount="0" stopTime="0.00" timeLoss="4.42" rerouteNo="0" devices="tripinfo_flow_en_truck.0 fcd_flow_en_truck.0" vType="truck" speedFactor="1.01" vaporized=""/>
    <tripinfo id="flow_ws_truck.0" depart="1.00" departLane="w_t_0" departPos="5.10" departSpeed="10.09" departDelay="1.00" arrival="35.00" arrivalLane="t_s_0" arrivalPos="186.40" arrivalSpeed="15.41" duration="34.00" routeLength="376.73" waitingTime="0.00" waitingCount="0" stopTime="0.00" timeLoss="8.93" rerouteNo="0" devices="tripinfo_flow_ws_truck.0 fcd_flow_ws_truck.0" vType="truck" speedFactor="1.16" vaporized=""/>
    <tripinfo id="flow_we_car.1" depart="13.00" departLane="w_t_1" departPos="5.10" departSpeed="16.37" departDelay="0.90" arrival="39.00" arrivalLane="t_e_1" arrivalPos="186.40" arrivalSpeed="15.79" duration="26.00" routeLength="394.90" waitingTime="0.00" waitingCount="0" stopTime="0.00" timeLoss="1.34" rerouteNo="0" devices="tripinfo_flow_we_car.1 fcd_flow_we_car.1" vType="car" speedFactor="1.18" vaporized=""/>
    <tripinfo id="flow_ew_car.1" depart="13.00" departLane="e_t_1" departPos="5.10" departSpeed="16.03" departDelay="0.90" arrival="39.00" arrivalLane="t_w_1" arrivalPos="186.40" arrivalSpeed="15.29" duration="26.00" routeLength="394.90" waitingTime="0.00" waitingCount="0" stopTime="0.00" timeLoss="1.09" rerouteNo="0" devices="tripinfo_flow_ew_car.1 fcd_flow_ew_car.1" vType="car" speedFactor="1.15" vaporized=""/>
    <tripinfo id="flow_ws_car.1" depart="13.00" departLane="w_t_0" departPos="5.10" departSpeed="16.28" departDelay="0.90" arrival="40.00" arrivalLane="t_s_0" arrivalPos="186.40" arrivalSpeed="15.38" duration="27.00" routeLength="376.73" waitingTime="0.00" waitingCount="0" stopTime="0.00" timeLoss="2.83" rerouteNo="0" devices="tripinfo_flow_ws_car.1 fcd_flow_ws_car.1" vType="car" speedFactor="1.17" vaporized=""/>
    <tripinfo id="flow_en_car.1" depart="13.00" departLane="e_t_0" departPos="5.10" departSpeed="13.82" departDelay="0.90" arrival="44.00" arrivalLane="t_n_0" arrivalPos="186.40" arrivalSpeed="13.64" duration="31.00" routeLength="376.73" waitingTime="0.00" waitingCount="0" stopTime="0.00" timeLoss="2.82" rerouteNo="0" devices="tripinfo_flow_en_car.1 fcd_flow_en_car.1" vType="car" speedFactor="0.99" vaporized=""/>
    <tripinfo id="flow_se_car.1" depart="13.00" departLane="s_t_0" departPos="5.10" departSpeed="12.94" departDelay="0.90" arrival="46.00" arrivalLane="t_e_0" arrivalPos="186.40" arrivalSpeed="12.56" duration="33.00" routeLength="376.73" waitingTime="0.00" waitingCount="0" stopTime="0.00" timeLoss="3.27" rerouteNo="0" devices="tripinfo_flow_se_car.1 fcd_flow_se_car.1" vType="car" speedFactor="0.93" vaporized=""/>
    <tripinfo id="flow_nw_car.1" depart="13.00" departLane="n_t_0" departPos="5.10" departSpeed="12.12" departDelay="0.90" arrival="48.00" arrivalLane="t_w_0" arrivalPos="186.40" arrivalSpeed="11.58" duration="35.00" routeLength="376.73" waitingTime="0.00" waitingCount="0" stopTime="0.00" timeLoss="3.29" rerouteNo="0" devices="tripinfo_flow_nw_car.1 fcd_flow_nw_car.1" vType="car" speedFactor="0.87" vaporized=""/>
    <tripinfo id="flow_nw_car.2" depart="25.00" departLane="n_t_0" departPos="5.10" departSpeed="16.39" departDelay="0.80" arrival="52.00" arrivalLane="t_w_0" arrivalPos="186.40" arrivalSpeed="15.96" duration="27.00" routeLength="376.73" waitingTime="0.00" waitingCount="0" stopTime="0.00" timeLoss="3.28" rerouteNo="0" devices="tripinfo_flow_nw_car.2 fcd_flow_nw_car.2" vType="car" speedFactor="1.18" vaporized=""/>
    <tripinfo id="flow_ws_car.2" depart="25.00" departLane="w_t_0" departPos="5.10" departSpeed="15.11" departDelay="0.80" arrival="54.00" arrivalLane="t_s_0" arrivalPos="186.40" arrivalSpeed="14.05" duration="29.00" routeLength="376.73" waitingTime="0.00" waitingCount="0" stopTime="0.00" timeLoss="3.51" rerouteNo="0" devices="tripinfo_flow_ws_car.2 fcd_flow_ws_car.2" vType="car" speedFactor="1.09" vaporized=""/>
    <tripinfo id="flow_en_car.2" depart="25.00" departLane="e_t_0" departPos="5.10" departSpeed="13.85" departDelay="0.80" arrival="56.00" arrivalLane="t_n_0" arrivalPos="186.40" arrivalSpeed="12.78" duration="31.00" routeLength="376.73" waitingTime="0.00" waitingCount="0" stopTime="0.00" timeLoss="3.21" rerouteNo="0" devices="tripinfo_flow_en_car.2 fcd_flow_en_car.2" vType="car" speedFactor="1.00" vaporized=""/>
    <tripinfo id="flow_es_car.0" depart="0.00" departLane="e_t_2" departPos="5.10" departSpeed="13.54" departDelay="0.00" arrival="57.00" arrivalLane="t_s_2" arrivalPos="186.40" arrivalSpeed="12.93" duration="57.00" routeLength="392.21" waitingTime="20.00" waitingCount="1" stopTime="0.00" timeLoss="27.20" rerouteNo="0" devices="tripinfo_flow_es_car.0 fcd_flow_es_car.0" vType="car" speedFactor="0.97" vaporized=""/>
    <tripinfo id="flow_wn_car.0" depart="0.00" departLane="w_t_2" departPos="5.10" departSpeed="12.20" departDelay="0.00" arrival="58.00" arrivalLane="t_n_2" arrivalPos="186.40" arrivalSpeed="11.64" duration="58.00" routeLength="392.21" waitingTime="18.00" waitingCount="1" stopTime="0.00" timeLoss="25.29" rerouteNo="0" devices="tripinfo_flow_wn_car.0 fcd_flow_wn_car.0" vType="car" speedFactor="0.88" vaporized=""/>
    <tripinfo id="flow_se_car.2" depart="25.00" departLane="s_t_0" departPos="5.10" departSpeed="13.29" departDelay="0.80" arrival="58.00" arrivalLane="t_e_0" arrivalPos="186.40" arrivalSpeed="12.39" duration="33.00" routeLength="376.73" waitingTime="0.00" waitingCount="0" stopTime="0.00" timeLoss="3.11" rerouteNo="0" devices="tripinfo_flow_se_car.2 fcd_flow_se_car.2" vType="car" speedFactor="0.96" vaporized=""/>
    <tripinfo id="flow_wn_truck.0" depart="1.00" departLane="w_t_2" departPos="5.10" departSpeed="9.35" departDelay="1.00" arrival="60.00" arrivalLane="t_n_2" arrivalPos="186.40" arrivalSpeed="12.60" duration="59.00" routeLength="392.21" waitingTime="18.00" waitingCount="1" stopTime="0.00" timeLoss="28.14" rerouteNo="0" devices="tripinfo_flow_wn_truck.0 fcd_flow_wn_truck.0" vType="truck" speedFactor="0.94" vaporized=""/>
    <tripinfo id="flow_es_truck.0" depart="1.00" departLane="e_t_2" departPos="5.10" departSpeed="10.46" departDelay="1.00" arrival="61.00" arrivalLane="t_s_2" arrivalPos="186.40" arrivalSpeed="11.20" duration="60.00" routeLength="392.21" waitingTime="17.00" waitingCount="1" stopTime="0.00" timeLoss="27.28" rerouteNo="0" devices="tripinfo_flow_es_truck.0 fcd_flow_es_truck.0" vType="truck" speedFactor="0.89" vaporized=""/>
    <tripinfo id="flow_wn_car.1" depart="13.00" departLane="w_t_2" departPos="5.10" departSpeed="13.96" departDelay="0.90" arrival="62.00" arrivalLane="t_n_2" arrivalPos="186.40" arrivalSpeed="12.97" duration="49.00" routeLength="392.21" waitingTime="11.00" waitingCount="1" stopTime="0.00" timeLoss="19.72" rerouteNo="0" devices="tripinfo_flow_wn_car.1 fcd_flow_wn_car.1" vType="car" speedFactor="1.01" vaporized=""/>
    <tripinfo id="flow_es_car.1" depart="13.00" departLane="e_t_2" departPos="5.10" departSpeed="14.16" departDelay="0.90" arrival="63.00" arrivalLane="t_s_2" arrivalPos="186.40" arrivalSpeed="13.79" duration="50.00" routeLength="392.21" waitingTime="12.00" waitingCount="1" stopTime="0.00" timeLoss="20.95" rerouteNo="0" devices="tripinfo_flow_es_car.1 fcd_flow_es_car.1" vType="car" speedFactor="1.02" vaporized=""/>
    <tripinfo id="flow_wn_car.2" depart="25.00" departLane="w_t_2" departPos="5.10" departSpeed="14.49" departDelay="0.80" arrival="63.00" arrivalLane="t_n_2" arrivalPos="186.40" arrivalSpeed="14.37" duration="38.00" routeLength="392.21" waitingTime="1.00" waitingCount="1" stopTime="0.00" timeLoss="10.48" rerouteNo="0" devices="tripinfo_flow_wn_car.2 fcd_flow_wn_car.2" vType="car" speedFactor="1.04" vaporized=""/>
    <tripinfo id="flow_ws_car.3" depart="37.00" departLane="w_t_0" departPos="5.10" departSpeed="15.87" departDelay="0.70" arrival="65.00" arrivalLane="t_s_0" arrivalPos="186.40" arrivalSpeed="14.75" duration="28.00" routeLength="376.73" waitingTime="0.00" waitingCount="0" stopTime="0.00" timeLoss="3.10" rerouteNo="0" devices="tripinfo_flow_ws_car.3 fcd_flow_ws_car.3" vType="car" speedFactor="1.14" vaporized=""/>
    <tripinfo id="flow_es_car.2" depart="25.00" departLane="e_t_2" departPos="5.10" departSpeed="12.51" departDelay="0.80" arrival="66.00" arrivalLane="t_s_2" arrivalPos="186.40" arrivalSpeed="11.71" duration="41.00" routeLength="392.21" waitingTime="0.00" waitingCount="0" stopTime="0.00" timeLoss="8.24" rerouteNo="0" devices="tripinfo_flow_es_car.2 fcd_flow_es_car.2" vType="car" speedFactor="0.90" vaporized=""/>
    <tripinfo id="flow_se_car.3" depart="37.00" departLane="s_t_0" departPos="5.10" departSpeed="15.22" departDelay="0.70" arrival="66.00" arrivalLane="t_e_0" arrivalPos="186.40" arrivalSpeed="14.34" duration="29.00" routeLength="376.73" waitingTime="0.00" waitingCount="0" stopTime="0.00" timeLoss="3.28" rerouteNo="0" devices="tripinfo_flow_se_car.3 fcd_flow_se_car.3" vType="car" speedFactor="1.10" vaporized=""/>
    <tripinfo id="flow_en_car.3" depart="37.00" departLane="e_t_0" departPos="5.10" departSpeed="14.22" departDelay="0.70" arrival="68.00" arrivalLane="t_n_0" arrivalPos="186.40" arrivalSpeed="13.79" duration="31.00" routeLength="376.73" waitingTime="0.00" waitingCount="0" stopTime="0.00" timeLoss="3.38" rerouteNo="0" devices="tripinfo_flow_en_car.3 fcd_flow_en_car.3" vType="car" speedFactor="1.02" vaporized=""/>
    <tripinfo id="flow_es_car.3" depart="37.00" departLane="e_t_2" departPos="5.10" departSpeed="13.47" departDelay="0.70" arrival="70.00" arrivalLane="t_s_2" arrivalPos="186.40" arrivalSpeed="13.38" duration="33.00" routeLength="392.21" waitingTime="0.00" waitingCount="0" stopTime="0.00" timeLoss="2.99" rerouteNo="0" devices="tripinfo_flow_es_car.3 fcd_flow_es_car.3" vType="car" speedFactor="0.97" vaporized=""/>
    <tripinfo id="flow_wn_car.3" depart="37.00" departLane="w_t_2" departPos="5.10" departSpeed="12.49" departDelay="0.70" arrival="73.00" arrivalLane="t_n_2" arrivalPos="186.40" arrivalSpeed="11.58" duration="36.00" routeLength="392.21" waitingTime="0.00" waitingCount="0" stopTime="0.00" timeLoss="3.39" rerouteNo="0" devices="tripinfo_flow_wn_car.3 fcd_flow_wn_car.3" vType="car" speedFactor="0.90" vaporized=""/>
    <tripinfo id="flow_nw_car.3" depart="37.00" departLane="n_t_0" departPos="5.10" departSpeed="11.81" departDelay="0.70" arrival="74.00" arrivalLane="t_w_0" arrivalPos="186.40" arrivalSpeed="11.11" duration="37.00" routeLength="376.73" waitingTime="0.00" waitingCount="0" stopTime="0.00" timeLoss="3.37" rerouteNo="0" devices="tripinfo_flow_nw_car.3 fcd_flow_nw_car.3" vType="car" speedFactor="0.85" vaporized=""/>
    <tripinfo id="flow_nw_car.4" depart="49.00" departLane="n_t_0" departPos="5.10" departSpeed="15.55" departDelay="0.60" arrival="78.00" arrivalLane="t_w_0" arrivalPos="186.40" arrivalSpeed="15.40" duration="29.00" routeLength="376.73" waitingTime="0.00" waitingCount="0" stopTime="0.00" timeLoss="2.83" rerouteNo="0" devices="tripinfo_flow_nw_car.4 fcd_flow_nw_car.4" vType="car" speedFactor="1.12" vaporized=""/>
    <tripinfo id="flow_wn_car.4" depart="49.00" departLane="w_t_2" departPos="5.10" departSpeed="14.45" departDelay="0.60" arrival="80.00" arrivalLane="t_n_2" arrivalPos="186.40" arrivalSpeed="14.00" duration="31.00" routeLength="392.21" waitingTime="0.00" waitingCount="0" stopTime="0.00" timeLoss="3.03" rerouteNo="0" devices="tripinfo_flow_wn_car.4 fcd_flow_wn_car.4" vType="car" speedFactor="1.04" vaporized=""/>
    <tripinfo id="flow_ws_car.4" depart="49.00" departLane="w_t_0" departPos="5.10" departSpeed="14.20" departDelay="0.60" arrival="80.00" arrivalLane="t_s_0" arrivalPos="186.40" arrivalSpeed="13.69" duration="31.00" routeLength="376.73" waitingTime="0.00" waitingCount="0" stopTime="0.00" timeLoss="2.85" rerouteNo="0" devices="tripinfo_flow_ws_car.4 fcd_flow_ws_car.4" vType="car" speedFactor="1.02" vaporized=""/>
    <tripinfo id="flow_en_car.4" depart="49.00" departLane="e_t_0" departPos="5.10" departSpeed="14.21" departDelay="0.60" arrival="80.00" arrivalLane="t_n_0" arrivalPos="186.40" arrivalSpeed="13.43" duration="31.00" routeLength="376.73" waitingTime="0.00" waitingCount="0" stopTime="0.00" timeLoss="3.46" rerouteNo="0" devices="tripinfo_flow_en_car.4 fcd_flow_en_car.4" vType="car" speedFactor="1.02" vaporized=""/>
    <tripinfo id="flow_es_car.4" depart="49.00" departLane="e_t_2" departPos="5.10" departSpeed="13.51" departDelay="0.60" arrival="82.00" arrivalLane="t_s_2" arrivalPos="186.40" arrivalSpeed="12.48" duration="33.00" routeLength="392.21" waitingTime="0.00" waitingCount="0" stopTime="0.00" timeLoss="3.32" rerouteNo="0" devices="tripinfo_flow_es_car.4 fcd_flow_es_car.4" vType="car" speedFactor="0.97" vaporized=""/>
    <tripinfo id="flow_se_car.4" depart="49.00" departLane="s_t_0" departPos="5.10" departSpeed="12.26" departDelay="0.60" arrival="85.00" arrivalLane="t_e_0" arrivalPos="186.40" arrivalSpeed="11.72" duration="36.00" routeLength="376.73" waitingTime="0.00" waitingCount="0" stopTime="0.00" timeLoss="3.65" rerouteNo="0" devices="tripinfo_flow_se_car.4 fcd_flow_se_car.4" vType="car" speedFactor="0.88" vaporized=""/>
    <tripinfo id="flow_nw_car.5" depart="61.00" departLane="n_t_0" departPos="5.10" departSpeed="14.66" departDelay="0.50" arrival="92.00" arrivalLane="t_w_0" arrivalPos="186.40" arrivalSpeed="14.42" duration="31.00" routeLength="376.73" waitingTime="0.00" waitingCount="0" stopTime="0.00" timeLoss="4.13" rerouteNo="0" devices="tripinfo_flow_nw_car.5 fcd_flow_nw_car.5" vType="car" speedFactor="1.06" vaporized=""/>
    <tripinfo id="flow_ws_car.5" depart="61.00" departLane="w_t_0" departPos="5.10" departSpeed="13.86" departDelay="0.50" arrival="93.00" arrivalLane="t_s_0" arrivalPos="186.40" arrivalSpeed="13.58" duration="32.00" routeLength="376.73" waitingTime="0.00" waitingCount="0" stopTime="0.00" timeLoss="3.27" rerouteNo="0" devices="tripinfo_flow_ws_car.5 fcd_flow_ws_car.5" vType="car" speedFactor="1.00" vaporized=""/>
    <tripinfo id="flow_en_car.5" depart="61.00" departLane="e_t_0" departPos="5.10" departSpeed="14.12" departDelay="0.50" arrival="93.00" arrivalLane="t_n_0" arrivalPos="186.40" arrivalSpeed="12.97" duration="32.00" routeLength="376.73" waitingTime="0.00" waitingCount="0" stopTime="0.00" timeLoss="4.03" rerouteNo="0" devices="tripinfo_flow_en_car.5 fcd_flow_en_car.5" vType="car" speedFactor="1.02" vaporized=""/>
    <tripinfo id="flow_ns_car.0" depart="0.00" departLane="n_t_1" departPos="5.10" departSpeed="14.72" departDelay="0.00" arrival="94.00" arrivalLane="t_s_1" arrivalPos="186.40" arrivalSpeed="13.90" duration="94.00" routeLength="394.90" waitingTime="60.00" waitingCount="1" stopTime="0.00" timeLoss="66.41" rerouteNo="0" devices="tripinfo_flow_ns_car.0 fcd_flow_ns_car.0" vType="car" speedFactor="1.06" vaporized=""/>
    <tripinfo id="flow_sn_car.0" depart="0.00" departLane="s_t_1" departPos="5.10" departSpeed="14.53" departDelay="0.00" arrival="94.00" arrivalLane="t_n_1" arrivalPos="186.40" arrivalSpeed="14.15" duration="94.00" routeLength="394.90" waitingTime="60.00" waitingCount="1" stopTime="0.00" timeLoss="66.27" rerouteNo="0" devices="tripinfo_flow_sn_car.0 fcd_flow_sn_car.0" vType="car" speedFactor="1.05" vaporized=""/>
    <tripinfo id="flow_se_car.5" depart="61.00" departLane="s_t_0" departPos="5.10" departSpeed="13.64" departDelay="0.50" arrival="94.00" arrivalLane="t_e_0" arrivalPos="186.40" arrivalSpeed="12.41" duration="33.00" routeLength="376.73" waitingTime="0.00" waitingCount="0" stopTime="0.00" timeLoss="4.16" rerouteNo="0" devices="tripinfo_flow_se_car.5 fcd_flow_se_car.5" vType="car" speedFactor="0.98" vaporized=""/>
    <tripinfo id="flow_ns_truck.0" depart="1.00" departLane="n_t_1" departPos="5.10" departSpeed="12.10" departDelay="1.00" arrival="97.00" arrivalLane="t_s_1" arrivalPos="186.40" arrivalSpeed="12.97" duration="96.00" routeLength="394.90" waitingTime="57.00" waitingCount="1" stopTime="0.00" timeLoss="65.49" rerouteNo="0" devices="tripinfo_flow_ns_truck.0 fcd_flow_ns_truck.0" vType="truck" speedFactor="0.94" vaporized=""/>
    <tripinfo id="flow_sn_truck.0" depart="1.00" departLane="s_t_1" departPos="5.10" departSpeed="10.78" departDelay="1.00" arrival="98.00" arrivalLane="t_n_1" arrivalPos="186.40" arrivalSpeed="11.49" duration="97.00" routeLength="394.90" waitingTime="58.00" waitingCount="1" stopTime="0.00" timeLoss="64.81" rerouteNo="0" devices="tripinfo_flow_sn_truck.0 fcd_flow_sn_truck.0" vType="truck" speedFactor="0.89" vaporized=""/>
    <tripinfo id="flow_en_truck.1" depart="69.00" departLane="e_t_0" departPos="5.10" departSpeed="15.15" departDelay="0.43" arrival="98.00" arrivalLane="t_n_0" arrivalPos="186.40" arrivalSpeed="14.37" duration="29.00" routeLength="376.73" waitingTime="0.00" waitingCount="0" stopTime="0.00" timeLoss="3.28" rerouteNo="0" devices="tripinfo_flow_en_truck.1 fcd_flow_en_truck.1" vType="truck" speedFactor="1.09" vaporized=""/>
    <tripinfo id="flow_sn_car.1" depart="13.00" departLane="s_t_1" departPos="5.10" departSpeed="13.18" departDelay="0.90" arrival="100.00" arrivalLane="t_n_1" arrivalPos="186.40" arrivalSpeed="12.27" duration="87.00" routeLength="394.90" waitingTime="48.00" waitingCount="1" stopTime="0.00" timeLoss="56.62" rerouteNo="0" devices="tripinfo_flow_sn_car.1 fcd_flow_sn_car.1" vType="car" speedFactor="0.95" vaporized=""/>
    <tripinfo id="flow_se_truck.1" depart="69.00" departLane="s_t_0" departPos="5.10" departSpeed="14.20" departDelay="0.43" arrival="100.00" arrivalLane="t_e_0" arrivalPos="186.40" arrivalSpeed="12.95" duration="31.00" routeLength="376.73" waitingTime="0.00" waitingCount="0" stopTime="0.00" timeLoss="3.48" rerouteNo="0" devices="tripinfo_flow_se_truck.1 fcd_flow_se_truck.1" vType="truck" speedFactor="1.02" vaporized=""/>
    <tripinfo id="flow_ns_car.1" depart="13.00" departLane="n_t_1" departPos="5.10" departSpeed="11.47" departDelay="0.90" arrival="101.00" arrivalLane="t_s_1" arrivalPos="186.40" arrivalSpeed="10.70" duration="88.00" routeLength="394.90" waitingTime="45.00" waitingCount="1" stopTime="0.00" timeLoss="53.32" rerouteNo="0" devices="tripinfo_flow_ns_car.1 fcd_flow_ns_car.1" vType="car" speedFactor="0.83" vaporized=""/>
    <tripinfo id="flow_nw_truck.1" depart="69.00" departLane="n_t_0" departPos="5.10" departSpeed="13.56" departDelay="0.43" arrival="101.00" arrivalLane="t_w_0" arrivalPos="186.40" arrivalSpeed="12.45" duration="32.00" routeLength="376.73" waitingTime="0.00" waitingCount="0" stopTime="0.00" timeLoss="3.11" rerouteNo="0" devices="tripinfo_flow_nw_truck.1 fcd_flow_nw_truck.1" vType="truck" speedFactor="0.98" vaporized=""/>
    <tripinfo id="flow_sn_car.2" depart="25.00" departLane="s_t_1" departPos="5.10" departSpeed="12.51" departDelay="0.80" arrival="102.00" arrivalLane="t_n_1" arrivalPos="186.40" arrivalSpeed="12.37" duration="77.00" routeLength="394.90" waitingTime="36.00" waitingCount="1" stopTime="0.00" timeLoss="44.93" rerouteNo="0" devices="tripinfo_flow_sn_car.2 fcd_flow_sn_car.2" vType="car" speedFactor="0.90" vaporized=""/>
    <tripinfo id="flow_ws_truck.1" depart="69.00" departLane="w_t_0" departPos="5.10" departSpeed="12.80" departDelay="0.43" arrival="102.00" arrivalLane="t_s_0" arrivalPos="186.40" arrivalSpeed="11.55" duration="33.00" routeLength="376.73" waitingTime="0.00" waitingCount="0" stopTime="0.00" timeLoss="2.81" rerouteNo="0" devices="tripinfo_flow_ws_truck.1 fcd_flow_ws_truck.1" vType="truck" speedFactor="0.92" vaporized=""/>
    <tripinfo id="flow_ns_car.2" depart="25.00" departLane="n_t_1" departPos="5.10" departSpeed="13.52" departDelay="0.80" arrival="103.00" arrivalLane="t_s_1" arrivalPos="186.40" arrivalSpeed="12.25" duration="78.00" routeLength="394.90" waitingTime="38.00" waitingCount="1" stopTime="0.00" timeLoss="48.24" rerouteNo="0" devices="tripinfo_flow_ns_car.2 fcd_flow_ns_car.2" vType="car" speedFactor="0.97" vaporized=""/>
    <tripinfo id="flow_sn_car.3" depart="37.00" departLane="s_t_1" departPos="5.10" departSpeed="16.24" departDelay="0.70" arrival="104.00" arrivalLane="t_n_1" arrivalPos="186.40" arrivalSpeed="15.35" duration="67.00" routeLength="394.90" waitingTime="30.00" waitingCount="1" stopTime="0.00" timeLoss="41.79" rerouteNo="0" devices="tripinfo_flow_sn_car.3 fcd_flow_sn_car.3" vType="car" speedFactor="1.17" vaporized=""/>
    <tripinfo id="flow_ws_car.6" depart="73.00" departLane="w_t_0" departPos="5.10" departSpeed="14.90" departDelay="0.39" arrival="104.00" arrivalLane="t_s_0" arrivalPos="186.40" arrivalSpeed="13.73" duration="31.00" routeLength="376.73" waitingTime="0.00" waitingCount="0" stopTime="0.00" timeLoss="4.30" rerouteNo="0" devices="tripinfo_flow_ws_car.6 fcd_flow_ws_car.6" vType="car" speedFactor="1.07" vaporized=""/>
    <tripinfo id="flow_en_car.6" depart="73.00" departLane="e_t_0" departPos="5.10" departSpeed="14.08" departDelay="0.39" arrival="104.00" arrivalLane="t_n_0" arrivalPos="186.40" arrivalSpeed="12.79" duration="31.00" routeLength="376.73" waitingTime="0.00" waitingCount="0" stopTime="0.00" timeLoss="3.51" rerouteNo="0" devices="tripinfo_flow_en_car.6 fcd_flow_en_car.6" vType="car" speedFactor="1.01" vaporized=""/>
    <tripinfo id="flow_ns_car.3" depart="37.00" departLane="n_t_1" departPos="5.10" departSpeed="12.18" departDelay="0.70" arrival="105.00" arrivalLane="t_s_1" arrivalPos="186.40" arrivalSpeed="12.05" duration="68.00" routeLength="394.90" waitingTime="27.00" waitingCount="1" stopTime="0.00" timeLoss="35.10" rerouteNo="0" devices="tripinfo_flow_ns_car.3 fcd_flow_ns_car.3" vType="car" speedFactor="0.88" vaporized=""/>
    <tripinfo id="flow_sn_car.4" depart="49.00" departLane="s_t_1" departPos="5.10" departSpeed="13.71" departDelay="0.60" arrival="105.00" arrivalLane="t_n_1" arrivalPos="186.40" arrivalSpeed="13.53" duration="56.00" routeLength="394.90" waitingTime="19.00" waitingCount="1" stopTime="0.00" timeLoss="27.07" rerouteNo="0" devices="tripinfo_flow_sn_car.4 fcd_flow_sn_car.4" vType="car" speedFactor="0.99" vaporized=""/>
    <tripinfo id="flow_se_car.6" depart="73.00" departLane="s_t_0" departPos="5.10" departSpeed="13.29" departDelay="0.39" arrival="106.00" arrivalLane="t_e_0" arrivalPos="186.40" arrivalSpeed="12.12" duration="33.00" routeLength="376.73" waitingTime="0.00" waitingCount="0" stopTime="0.00" timeLoss="3.79" rerouteNo="0" devices="tripinfo_flow_se_car.6 fcd_flow_se_car.6" vType="car" speedFactor="0.96" vaporized=""/>
    <tripinfo id="flow_ns_car.4" depart="49.00" departLane="n_t_1" departPos="5.10" departSpeed="15.04" departDelay="0.60" arrival="107.00" arrivalLane="t_s_1" arrivalPos="186.40" arrivalSpeed="14.47" duration="58.00" routeLength="394.90" waitingTime="19.00" waitingCount="1" stopTime="0.00" timeLoss="30.95" rerouteNo="0" devices="tripinfo_flow_ns_car.4 fcd_flow_ns_car.4" vType="car" speedFactor="1.08" vaporized=""/>
    <tripinfo id="flow_sn_car.5" depart="61.00" departLane="s_t_1" departPos="5.10" departSpeed="13.68" departDelay="0.50" arrival="107.00" arrivalLane="t_n_1" arrivalPos="186.40" arrivalSpeed="12.39" duration="46.00" routeLength="394.90" waitingTime="6.00" waitingCount="1" stopTime="0.00" timeLoss="16.85" rerouteNo="0" devices="tripinfo_flow_sn_car.5 fcd_flow_sn_car.5" vType="car" speedFactor="0.98" vaporized=""/>
    <tripinfo id="flow_nw_car.6" depart="73.00" departLane="n_t_0" departPos="5.10" departSpeed="12.59" departDelay="0.39" arrival="107.00" arrivalLane="t_w_0" arrivalPos="186.40" arrivalSpeed="12.04" duration="34.00" routeLength="376.73" waitingTime="0.00" waitingCount="0" stopTime="0.00" timeLoss="3.00" rerouteNo="0" devices="tripinfo_flow_nw_car.6 fcd_flow_nw_car.6" vType="car" speedFactor="0.91" vaporized=""/>
    <tripinfo id="flow_ns_car.5" depart="61.00" departLane="n_t_1" departPos="5.10" departSpeed="13.06" departDelay="0.50" arrival="109.00" arrivalLane="t_s_1" arrivalPos="186.40" arrivalSpeed="12.98" duration="48.00" routeLength="394.90" waitingTime="7.00" waitingCount="1" stopTime="0.00" timeLoss="16.79" rerouteNo="0" devices="tripinfo_flow_ns_car.5 fcd_flow_ns_car.5" vType="car" speedFactor="0.94" vaporized=""/>