<?xml version="1.0" encoding="UTF-8"?>

<!-- generated on 2025-06-11 16:51:58 by Eclipse SUMO sumo Version 1.16.0
<configuration xmlns:xsi="http://www.w3.org/2001/XMLSchema-instance" xsi:noNamespaceSchemaLocation="http://sumo.dlr.de/xsd/sumoConfiguration.xsd">

    <input>
        <net-file value="nets/syc/1x1/Heavy_low/syc_4phases.net.xml"/>
        <route-files value="nets/syc/1x1/Heavy_low/heavy_low.rou.xml"/>
        <additional-files value="nets/syc/1x1/Heavy_low/1x1_outputs.add.xml"/>
    </input>

    <output>
        <fcd-output value="nets/syc/1x1/Heavy_low/output/fcd_output.xml"/>
        <tripinfo-output value="nets/syc/1x1/Heavy_low/output/tripinfo.out.xml"/>
    </output>

    <time>
        <begin value="0"/>
        <end value="1000"/>
    </time>

    <processing>
        <time-to-teleport value="-1"/>
        <waiting-time-memory value="1000"/>
        <max-depart-delay value="-1"/>
    </processing>

    <traci_server>
        <remote-port value="56246"/>
    </traci_server>

    <random_number>
        <seed value="0"/>
    </random_number>

</configuration>
-->

<meandata xmlns:xsi="http://www.w3.org/2001/XMLSchema-instance" xsi:noNamespaceSchemaLocation="http://sumo.dlr.de/xsd/meandata_file.xsd">
    <interval begin="0.00" end="10.00" id="1">
        <edge id="e_t" sampledSeconds="30.00" traveltime="15.29" overlapTraveltime="15.70" density="16.09" laneDensity="5.36" occupancy="2.68" waitingTime="0.00" timeLoss="1.68" speed="12.19" speedRelative="0.88" departed="6" arrived="0" entered="0" left="0" laneChangedFrom="0" laneChangedTo="0"/>
        <edge id="n_t" sampledSeconds="27.00" traveltime="13.08" overlapTraveltime="13.43" density="14.48" laneDensity="4.83" occupancy="2.41" waitingTime="0.00" timeLoss="0.99" speed="14.25" speedRelative="1.03" departed="3" arrived="0" entered="0" left="0" laneChangedFrom="0" laneChangedTo="0"/>
        <edge id="s_t" sampledSeconds="27.00" traveltime="13.88" overlapTraveltime="14.25" density="14.48" laneDensity="4.83" occupancy="2.41" waitingTime="0.00" timeLoss="1.36" speed="13.43" speedRelative="0.97" departed="3" arrived="0" entered="0" left="0" laneChangedFrom="0" laneChangedTo="0"/>
        <edge id="t_e" sampledSeconds="0.00" departed="0" arrived="0" entered="0" left="0" laneChangedFrom="0" laneChangedTo="0"/>
        <edge id="t_n" sampledSeconds="0.00" departed="0" arrived="0" entered="0" left="0" laneChangedFrom="0" laneChangedTo="0"/>
        <edge id="t_s" sampledSeconds="0.00" departed="0" arrived="0" entered="0" left="0" laneChangedFrom="0" laneChangedTo="0"/>
        <edge id="t_w" sampledSeconds="0.00" departed="0" arrived="0" entered="0" left="0" laneChangedFrom="0" laneChangedTo="0"/>
        <edge id="w_t" sampledSeconds="30.00" traveltime="12.71" overlapTraveltime="13.05" density="16.09" laneDensity="5.36" occupancy="2.68" waitingTime="0.00" timeLoss="1.15" speed="14.66" speedRelative="1.06" departed="6" arrived="0" entered="0" left="0" laneChangedFrom="0" laneChangedTo="0"/>
    </interval>
    <interval begin="10.00" end="20.00" id="1">
        <edge id="e_t" sampledSeconds="68.09" traveltime="15.71" overlapTraveltime="16.50" density="36.53" laneDensity="12.18" occupancy="5.99" waitingTime="0.00" timeLoss="8.97" speed="11.60" speedRelative="0.84" departed="3" arrived="0" entered="0" left="2" laneChangedFrom="0" laneChangedTo="0"/>
        <edge id="n_t" sampledSeconds="25.23" traveltime="29.00" overlapTraveltime="29.79" density="13.53" laneDensity="4.51" occupancy="2.22" waitingTime="6.00" timeLoss="13.71" speed="6.42" speedRelative="0.46" departed="0" arrived="0" entered="0" left="1" laneChangedFrom="0" laneChangedTo="0"/>
        <edge id="s_t" sampledSeconds="23.71" traveltime="23.95" overlapTraveltime="24.62" density="12.72" laneDensity="4.24" occupancy="2.09" waitingTime="5.00" timeLoss="9.89" speed="7.77" speedRelative="0.56" departed="0" arrived="0" entered="0" left="1" laneChangedFrom="0" laneChangedTo="0"/>
        <edge id="t_e" sampledSeconds="10.90" traveltime="14.13" overlapTraveltime="14.51" density="5.85" laneDensity="1.95" occupancy="0.93" waitingTime="0.00" timeLoss="1.81" speed="13.19" speedRelative="0.95" departed="0" arrived="0" entered="2" left="0" laneChangedFrom="0" laneChangedTo="0"/>
        <edge id="t_n" sampledSeconds="2.26" traveltime="24.48" overlapTraveltime="25.13" density="1.21" laneDensity="0.40" occupancy="0.17" waitingTime="0.00" timeLoss="0.95" speed="7.62" speedRelative="0.55" departed="0" arrived="0" entered="1" left="0" laneChangedFrom="0" laneChangedTo="0"/>
        <edge id="t_s" sampledSeconds="2.24" traveltime="21.08" overlapTraveltime="21.64" density="1.20" laneDensity="0.40" occupancy="0.17" waitingTime="0.00" timeLoss="0.73" speed="8.84" speedRelative="0.64" departed="0" arrived="0" entered="1" left="0" laneChangedFrom="0" laneChangedTo="0"/>
        <edge id="t_w" sampledSeconds="4.11" traveltime="17.85" overlapTraveltime="18.33" density="2.21" laneDensity="0.74" occupancy="0.34" waitingTime="0.00" timeLoss="1.16" speed="10.44" speedRelative="0.75" departed="0" arrived="0" entered="1" left="0" laneChangedFrom="0" laneChangedTo="0"/>
        <edge id="w_t" sampledSeconds="61.57" traveltime="16.94" overlapTraveltime="17.76" density="33.03" laneDensity="11.01" occupancy="5.40" waitingTime="3.00" timeLoss="10.80" speed="10.77" speedRelative="0.78" departed="3" arrived="0" entered="0" left="3" laneChangedFrom="0" laneChangedTo="0"/>
    </interval>
    <interval begin="20.00" end="30.00" id="1">
        <edge id="e_t" sampledSeconds="79.05" traveltime="19.16" overlapTraveltime="19.93" density="42.41" laneDensity="14.14" occupancy="6.93" waitingTime="13.00" timeLoss="24.70" speed="9.61" speedRelative="0.69" departed="6" arrived="0" entered="0" left="4" laneChangedFrom="0" laneChangedTo="0"/>
        <edge id="n_t" sampledSeconds="29.00" traveltime="42.35" overlapTraveltime="43.48" density="15.56" laneDensity="5.19" occupancy="2.59" waitingTime="20.00" timeLoss="20.34" speed="4.40" speedRelative="0.32" departed="3" arrived="0" entered="0" left="0" laneChangedFrom="0" laneChangedTo="0"/>
        <edge id="s_t" sampledSeconds="29.00" traveltime="43.67" overlapTraveltime="44.84" density="15.56" laneDensity="5.19" occupancy="2.59" waitingTime="20.00" timeLoss="20.51" speed="4.27" speedRelative="0.31" departed="3" arrived="0" entered="0" left="0" laneChangedFrom="0" laneChangedTo="0"/>
        <edge id="t_e" sampledSeconds="15.66" traveltime="12.23" overlapTraveltime="12.55" density="8.40" laneDensity="2.80" occupancy="1.37" waitingTime="0.00" timeLoss="0.59" speed="15.26" speedRelative="1.10" departed="0" arrived="2" entered="0" left="0" laneChangedFrom="0" laneChangedTo="0"/>
        <edge id="t_n" sampledSeconds="26.73" traveltime="14.09" overlapTraveltime="14.47" density="14.34" laneDensity="4.78" occupancy="2.32" waitingTime="0.00" timeLoss="2.73" speed="13.23" speedRelative="0.95" departed="0" arrived="0" entered="3" left="0" laneChangedFrom="0" laneChangedTo="0"/>
        <edge id="t_s" sampledSeconds="22.27" traveltime="14.81" overlapTraveltime="15.21" density="11.95" laneDensity="3.98" occupancy="1.94" waitingTime="0.00" timeLoss="2.11" speed="12.59" speedRelative="0.91" departed="0" arrived="0" entered="2" left="0" laneChangedFrom="0" laneChangedTo="0"/>
        <edge id="t_w" sampledSeconds="10.00" traveltime="13.58" overlapTraveltime="13.94" density="5.36" laneDensity="1.79" occupancy="0.89" waitingTime="0.00" timeLoss="0.57" speed="13.73" speedRelative="0.99" departed="0" arrived="0" entered="0" left="0" laneChangedFrom="0" laneChangedTo="0"/>
        <edge id="w_t" sampledSeconds="74.90" traveltime="17.94" overlapTraveltime="18.63" density="40.18" laneDensity="13.39" occupancy="6.62" waitingTime="5.00" timeLoss="13.68" speed="10.28" speedRelative="0.74" departed="6" arrived="0" entered="0" left="2" laneChangedFrom="0" laneChangedTo="0"/>
    </interval>
    <interval begin="30.00" end="40.00" id="1">
        <edge id="e_t" sampledSeconds="95.97" traveltime="24.11" overlapTraveltime="24.82" density="51.49" laneDensity="17.16" occupancy="8.51" waitingTime="33.00" timeLoss="39.75" speed="7.71" speedRelative="0.56" departed="3" arrived="0" entered="0" left="2" laneChangedFrom="0" laneChangedTo="0"/>
        <edge id="n_t" sampledSeconds="49.86" traveltime="24.50" overlapTraveltime="25.21" density="26.75" laneDensity="8.92" occupancy="4.42" waitingTime="20.00" timeLoss="23.49" speed="7.59" speedRelative="0.55" departed="0" arrived="0" entered="0" left="1" laneChangedFrom="0" laneChangedTo="0"/>
        <edge id="s_t" sampledSeconds="50.00" traveltime="23.71" overlapTraveltime="24.36" density="26.82" laneDensity="8.94" occupancy="4.47" waitingTime="20.00" timeLoss="22.52" speed="7.86" speedRelative="0.57" departed="0" arrived="0" entered="0" left="1" laneChangedFrom="0" laneChangedTo="0"/>
        <edge id="t_e" sampledSeconds="0.00" departed="0" arrived="0" entered="0" left="0" laneChangedFrom="0" laneChangedTo="0"/>
        <edge id="t_n" sampledSeconds="41.62" traveltime="14.41" overlapTraveltime="14.75" density="22.33" laneDensity="7.44" occupancy="3.60" waitingTime="0.00" timeLoss="3.52" speed="12.97" speedRelative="0.93" departed="0" arrived="3" entered="4" left="0" laneChangedFrom="0" laneChangedTo="0"/>
        <edge id="t_s" sampledSeconds="41.17" traveltime="15.23" overlapTraveltime="15.62" density="22.09" laneDensity="7.36" occupancy="3.50" waitingTime="0.00" timeLoss="4.44" speed="12.25" speedRelative="0.88" departed="0" arrived="2" entered="5" left="0" laneChangedFrom="0" laneChangedTo="0"/>
        <edge id="t_w" sampledSeconds="0.78" traveltime="13.07" overlapTraveltime="13.43" density="0.42" laneDensity="0.14" occupancy="0.05" waitingTime="0.00" timeLoss="0.02" speed="14.26" speedRelative="1.03" departed="0" arrived="1" entered="0" left="0" laneChangedFrom="0" laneChangedTo="0"/>
        <edge id="w_t" sampledSeconds="95.33" traveltime="22.21" overlapTraveltime="23.06" density="51.14" laneDensity="17.05" occupancy="8.37" waitingTime="20.00" timeLoss="33.03" speed="8.30" speedRelative="0.60" departed="3" arrived="0" entered="0" left="4" laneChangedFrom="0" laneChangedTo="0"/>
    </interval>
    <interval begin="40.00" end="50.00" id="1">
        <edge id="e_t" sampledSeconds="105.33" traveltime="29.97" overlapTraveltime="30.72" density="56.51" laneDensity="18.84" occupancy="9.36" waitingTime="45.00" timeLoss="52.77" speed="6.23" speedRelative="0.45" departed="3" arrived="0" entered="0" left="2" laneChangedFrom="0" laneChangedTo="0"/>
        <edge id="n_t" sampledSeconds="40.00" traveltime="290.13" overlapTraveltime="297.91" density="21.46" laneDensity="7.15" occupancy="3.58" waitingTime="35.00" timeLoss="37.81" speed="0.64" speedRelative="0.05" departed="0" arrived="0" entered="0" left="0" laneChangedFrom="0" laneChangedTo="0"/>
        <edge id="s_t" sampledSeconds="40.71" traveltime="689.85" overlapTraveltime="513.13" density="21.84" laneDensity="7.28" occupancy="3.60" waitingTime="34.00" timeLoss="39.34" speed="0.37" speedRelative="0.03" departed="0" arrived="0" entered="0" left="0" laneChangedFrom="0" laneChangedTo="0"/>
        <edge id="t_e" sampledSeconds="8.67" traveltime="14.59" overlapTraveltime="14.98" density="4.65" laneDensity="1.55" occupancy="0.74" waitingTime="0.00" timeLoss="1.62" speed="12.78" speedRelative="0.92" departed="0" arrived="0" entered="1" left="0" laneChangedFrom="0" laneChangedTo="0"/>
        <edge id="t_n" sampledSeconds="41.83" traveltime="15.52" overlapTraveltime="15.90" density="22.44" laneDensity="7.48" occupancy="3.65" waitingTime="0.00" timeLoss="4.73" speed="12.04" speedRelative="0.87" departed="0" arrived="2" entered="1" left="0" laneChangedFrom="0" laneChangedTo="0"/>
        <edge id="t_s" sampledSeconds="49.90" traveltime="16.47" overlapTraveltime="16.85" density="26.77" laneDensity="8.92" occupancy="4.35" waitingTime="0.00" timeLoss="4.87" speed="11.36" speedRelative="0.82" departed="0" arrived="2" entered="2" left="0" laneChangedFrom="1" laneChangedTo="1"/>
        <edge id="t_w" sampledSeconds="9.55" traveltime="13.50" overlapTraveltime="13.86" density="5.12" laneDensity="1.71" occupancy="0.82" waitingTime="0.00" timeLoss="1.57" speed="13.81" speedRelative="0.99" departed="0" arrived="0" entered="1" left="0" laneChangedFrom="0" laneChangedTo="0"/>
        <edge id="w_t" sampledSeconds="97.73" traveltime="25.83" overlapTraveltime="26.55" density="52.43" laneDensity="17.48" occupancy="8.67" waitingTime="35.00" timeLoss="42.52" speed="7.21" speedRelative="0.52" departed="3" arrived="0" entered="0" left="2" laneChangedFrom="0" laneChangedTo="0"/>
    </interval>
    <interval begin="50.00" end="60.00" id="1">
        <edge id="e_t" sampledSeconds="124.99" traveltime="33.37" overlapTraveltime="34.18" density="67.05" laneDensity="22.35" occupancy="11.11" waitingTime="59.00" timeLoss="68.34" speed="5.60" speedRelative="0.40" departed="6" arrived="0" entered="0" left="2" laneChangedFrom="0" laneChangedTo="0"/>
        <edge id="n_t" sampledSeconds="61.00" traveltime="46.18" overlapTraveltime="47.42" density="32.73" laneDensity="10.91" occupancy="5.45" waitingTime="40.00" timeLoss="41.34" speed="4.04" speedRelative="0.29" departed="3" arrived="0" entered="0" left="0" laneChangedFrom="0" laneChangedTo="0"/>
        <edge id="s_t" sampledSeconds="61.00" traveltime="38.23" overlapTraveltime="39.26" density="32.73" laneDensity="10.91" occupancy="5.45" waitingTime="40.00" timeLoss="40.81" speed="4.88" speedRelative="0.35" departed="3" arrived="0" entered="0" left="0" laneChangedFrom="0" laneChangedTo="0"/>
        <edge id="t_e" sampledSeconds="5.00" traveltime="12.34" overlapTraveltime="12.67" density="2.68" laneDensity="0.89" occupancy="0.45" waitingTime="0.00" timeLoss="0.19" speed="15.10" speedRelative="1.09" departed="0" arrived="1" entered="0" left="0" laneChangedFrom="0" laneChangedTo="0"/>
        <edge id="t_n" sampledSeconds="44.60" traveltime="15.64" overlapTraveltime="16.05" density="23.93" laneDensity="7.98" occupancy="3.87" waitingTime="0.00" timeLoss="5.40" speed="11.93" speedRelative="0.86" departed="0" arrived="4" entered="3" left="0" laneChangedFrom="0" laneChangedTo="0"/>
        <edge id="t_s" sampledSeconds="44.87" traveltime="15.75" overlapTraveltime="16.16" density="24.07" laneDensity="8.02" occupancy="3.89" waitingTime="0.00" timeLoss="3.29" speed="11.85" speedRelative="0.85" departed="0" arrived="4" entered="2" left="0" laneChangedFrom="0" laneChangedTo="0"/>
        <edge id="t_w" sampledSeconds="3.78" traveltime="11.89" overlapTraveltime="12.16" density="2.03" laneDensity="0.68" occupancy="0.32" waitingTime="0.00" timeLoss="0.18" speed="15.74" speedRelative="1.13" departed="0" arrived="1" entered="0" left="0" laneChangedFrom="0" laneChangedTo="0"/>
        <edge id="w_t" sampledSeconds="114.04" traveltime="28.30" overlapTraveltime="29.11" density="61.18" laneDensity="20.39" occupancy="10.09" waitingTime="47.00" timeLoss="57.72" speed="6.57" speedRelative="0.47" departed="6" arrived="0" entered="0" left="3" laneChangedFrom="0" laneChangedTo="0"/>
    </interval>
    <interval begin="60.00" end="70.00" id="1">
        <edge id="e_t" sampledSeconds="143.35" traveltime="37.91" overlapTraveltime="38.80" density="76.90" laneDensity="25.63" occupancy="12.70" waitingTime="76.00" timeLoss="85.40" speed="4.93" speedRelative="0.36" departed="3" arrived="0" entered="0" left="3" laneChangedFrom="0" laneChangedTo="0"/>
        <edge id="n_t" sampledSeconds="69.10" traveltime="48.00" overlapTraveltime="49.02" density="37.07" laneDensity="12.36" occupancy="6.14" waitingTime="41.00" timeLoss="46.90" speed="3.90" speedRelative="0.28" departed="0" arrived="0" entered="0" left="1" laneChangedFrom="0" laneChangedTo="0"/>
        <edge id="s_t" sampledSeconds="68.00" traveltime="58.33" overlapTraveltime="59.29" density="36.48" laneDensity="12.16" occupancy="6.04" waitingTime="46.00" timeLoss="52.40" speed="3.23" speedRelative="0.23" departed="0" arrived="0" entered="0" left="1" laneChangedFrom="0" laneChangedTo="0"/>
        <edge id="t_e" sampledSeconds="1.37" traveltime="23.02" overlapTraveltime="23.64" density="0.73" laneDensity="0.24" occupancy="0.09" waitingTime="0.00" timeLoss="0.59" speed="8.10" speedRelative="0.58" departed="0" arrived="0" entered="1" left="0" laneChangedFrom="0" laneChangedTo="0"/>
        <edge id="t_n" sampledSeconds="47.81" traveltime="15.80" overlapTraveltime="16.21" density="25.65" laneDensity="8.55" occupancy="4.14" waitingTime="0.00" timeLoss="6.97" speed="11.81" speedRelative="0.85" departed="0" arrived="2" entered="4" left="0" laneChangedFrom="0" laneChangedTo="0"/>
        <edge id="t_s" sampledSeconds="39.28" traveltime="17.14" overlapTraveltime="17.54" density="21.07" laneDensity="7.02" occupancy="3.38" waitingTime="0.00" timeLoss="3.52" speed="10.91" speedRelative="0.79" departed="0" arrived="2" entered="3" left="0" laneChangedFrom="0" laneChangedTo="0"/>
        <edge id="t_w" sampledSeconds="0.11" traveltime="36.47" overlapTraveltime="37.45" density="0.06" laneDensity="0.02" occupancy="0.00" waitingTime="0.00" timeLoss="0.07" speed="5.11" speedRelative="0.37" departed="0" arrived="0" entered="1" left="0" laneChangedFrom="0" laneChangedTo="0"/>
        <edge id="w_t" sampledSeconds="127.76" traveltime="31.96" overlapTraveltime="32.81" density="68.54" laneDensity="22.85" occupancy="11.31" waitingTime="65.00" timeLoss="74.28" speed="5.83" speedRelative="0.42" departed="3" arrived="0" entered="0" left="3" laneChangedFrom="0" laneChangedTo="0"/>
    </interval>
    <interval begin="70.00" end="80.00" id="1">
        <edge id="e_t" sampledSeconds="157.35" traveltime="40.82" overlapTraveltime="41.68" density="84.42" laneDensity="28.14" occupancy="13.96" waitingTime="91.00" timeLoss="101.19" speed="4.59" speedRelative="0.33" departed="3" arrived="0" entered="0" left="4" laneChangedFrom="0" laneChangedTo="0"/>
        <edge id="n_t" sampledSeconds="63.00" traveltime="280.16" overlapTraveltime="287.67" density="33.80" laneDensity="11.27" occupancy="5.63" waitingTime="59.00" timeLoss="60.07" speed="0.67" speedRelative="0.05" departed="3" arrived="0" entered="0" left="0" laneChangedFrom="0" laneChangedTo="0"/>
        <edge id="s_t" sampledSeconds="63.00" traveltime="330.87" overlapTraveltime="339.75" density="33.80" laneDensity="11.27" occupancy="5.63" waitingTime="60.00" timeLoss="60.22" speed="0.56" speedRelative="0.04" departed="3" arrived="0" entered="0" left="0" laneChangedFrom="0" laneChangedTo="0"/>
        <edge id="t_e" sampledSeconds="10.00" traveltime="14.38" overlapTraveltime="14.76" density="5.36" laneDensity="1.79" occupancy="0.89" waitingTime="0.00" timeLoss="0.85" speed="12.97" speedRelative="0.93" departed="0" arrived="0" entered="0" left="0" laneChangedFrom="0" laneChangedTo="0"/>
        <edge id="t_n" sampledSeconds="41.04" traveltime="14.67" overlapTraveltime="15.02" density="22.02" laneDensity="7.34" occupancy="3.57" waitingTime="0.00" timeLoss="3.58" speed="12.75" speedRelative="0.92" departed="0" arrived="3" entered="2" left="0" laneChangedFrom="0" laneChangedTo="0"/>
        <edge id="t_s" sampledSeconds="48.36" traveltime="17.54" overlapTraveltime="18.00" density="25.94" laneDensity="8.65" occupancy="4.19" waitingTime="0.00" timeLoss="5.55" speed="10.64" speedRelative="0.77" departed="0" arrived="4" entered="4" left="0" laneChangedFrom="0" laneChangedTo="0"/>
        <edge id="t_w" sampledSeconds="10.00" traveltime="16.53" overlapTraveltime="16.97" density="5.36" laneDensity="1.79" occupancy="0.87" waitingTime="0.00" timeLoss="1.25" speed="11.28" speedRelative="0.81" departed="0" arrived="0" entered="0" left="0" laneChangedFrom="0" laneChangedTo="0"/>
        <edge id="w_t" sampledSeconds="139.06" traveltime="38.31" overlapTraveltime="38.99" density="74.60" laneDensity="24.87" occupancy="12.31" waitingTime="81.00" timeLoss="92.15" speed="4.91" speedRelative="0.35" departed="3" arrived="0" entered="0" left="4" laneChangedFrom="0" laneChangedTo="0"/>
    </interval>
    <interval begin="80.00" end="90.00" id="1">
        <edge id="e_t" sampledSeconds="165.78" traveltime="46.24" overlapTraveltime="47.20" density="88.94" laneDensity="29.65" occupancy="14.66" waitingTime="102.00" timeLoss="116.30" speed="4.06" speedRelative="0.29" departed="6" arrived="0" entered="0" left="3" laneChangedFrom="0" laneChangedTo="0"/>
        <edge id="n_t" sampledSeconds="90.00" traveltime="41.71" overlapTraveltime="42.82" density="48.28" laneDensity="16.09" occupancy="8.05" waitingTime="60.00" timeLoss="62.00" speed="4.47" speedRelative="0.32" departed="0" arrived="0" entered="0" left="0" laneChangedFrom="0" laneChangedTo="0"/>
        <edge id="s_t" sampledSeconds="90.00" traveltime="46.67" overlapTraveltime="47.92" density="48.28" laneDensity="16.09" occupancy="8.05" waitingTime="60.00" timeLoss="61.87" speed="3.99" speedRelative="0.29" departed="0" arrived="0" entered="0" left="0" laneChangedFrom="0" laneChangedTo="0"/>
        <edge id="t_e" sampledSeconds="3.71" traveltime="13.65" overlapTraveltime="14.02" density="1.99" laneDensity="0.66" occupancy="0.32" waitingTime="0.00" timeLoss="0.13" speed="13.65" speedRelative="0.98" departed="0" arrived="1" entered="0" left="0" laneChangedFrom="0" laneChangedTo="0"/>
        <edge id="t_n" sampledSeconds="44.60" traveltime="14.63" overlapTraveltime="15.04" density="23.93" laneDensity="7.98" occupancy="3.89" waitingTime="0.00" timeLoss="4.11" speed="12.72" speedRelative="0.92" departed="0" arrived="3" entered="2" left="0" laneChangedFrom="0" laneChangedTo="0"/>
        <edge id="t_s" sampledSeconds="51.88" traveltime="17.45" overlapTraveltime="17.91" density="27.83" laneDensity="9.28" occupancy="4.57" waitingTime="0.00" timeLoss="8.69" speed="10.68" speedRelative="0.77" departed="0" arrived="1" entered="2" left="0" laneChangedFrom="1" laneChangedTo="1"/>
        <edge id="t_w" sampledSeconds="6.44" traveltime="15.36" overlapTraveltime="15.78" density="3.45" laneDensity="1.15" occupancy="0.56" waitingTime="0.00" timeLoss="0.38" speed="12.13" speedRelative="0.87" departed="0" arrived="1" entered="0" left="0" laneChangedFrom="0" laneChangedTo="0"/>
        <edge id="w_t" sampledSeconds="149.99" traveltime="42.20" overlapTraveltime="43.35" density="80.47" laneDensity="26.82" occupancy="13.32" waitingTime="91.00" timeLoss="104.60" speed="4.42" speedRelative="0.32" departed="6" arrived="0" entered="0" left="2" laneChangedFrom="0" laneChangedTo="0"/>
    </interval>
    <interval begin="90.00" end="100.00" id="1">
        <edge id="e_t" sampledSeconds="159.17" traveltime="36.97" overlapTraveltime="37.50" density="85.39" laneDensity="28.46" occupancy="14.07" waitingTime="56.00" timeLoss="99.69" speed="5.10" speedRelative="0.37" departed="3" arrived="0" entered="0" left="6" laneChangedFrom="0" laneChangedTo="0"/>
        <edge id="n_t" sampledSeconds="84.15" traveltime="289.70" overlapTraveltime="274.81" density="45.15" laneDensity="15.05" occupancy="7.49" waitingTime="75.00" timeLoss="79.39" speed="0.70" speedRelative="0.05" departed="0" arrived="0" entered="0" left="1" laneChangedFrom="0" laneChangedTo="0"/>
        <edge id="s_t" sampledSeconds="85.48" traveltime="154.64" overlapTraveltime="153.03" density="45.86" laneDensity="15.29" occupancy="7.60" waitingTime="72.00" timeLoss="75.98" speed="1.25" speedRelative="0.09" departed="0" arrived="0" entered="0" left="1" laneChangedFrom="0" laneChangedTo="0"/>
        <edge id="t_e" sampledSeconds="25.41" traveltime="14.82" overlapTraveltime="15.22" density="13.63" laneDensity="4.54" occupancy="2.14" waitingTime="0.00" timeLoss="2.49" speed="12.58" speedRelative="0.91" departed="0" arrived="0" entered="6" left="0" laneChangedFrom="0" laneChangedTo="0"/>
        <edge id="t_n" sampledSeconds="31.66" traveltime="15.95" overlapTraveltime="16.32" density="16.98" laneDensity="5.66" occupancy="2.73" waitingTime="0.00" timeLoss="4.39" speed="11.73" speedRelative="0.84" departed="0" arrived="3" entered="2" left="0" laneChangedFrom="0" laneChangedTo="0"/>
        <edge id="t_s" sampledSeconds="49.19" traveltime="15.64" overlapTraveltime="16.10" density="26.39" laneDensity="8.80" occupancy="4.31" waitingTime="0.00" timeLoss="4.66" speed="11.89" speedRelative="0.86" departed="0" arrived="4" entered="1" left="0" laneChangedFrom="0" laneChangedTo="0"/>
        <edge id="t_w" sampledSeconds="24.44" traveltime="18.22" overlapTraveltime="18.71" density="13.11" laneDensity="4.37" occupancy="2.07" waitingTime="0.00" timeLoss="4.49" speed="10.23" speedRelative="0.74" departed="0" arrived="0" entered="5" left="0" laneChangedFrom="0" laneChangedTo="0"/>
        <edge id="w_t" sampledSeconds="146.65" traveltime="33.49" overlapTraveltime="33.97" density="78.67" laneDensity="26.22" occupancy="12.96" waitingTime="39.00" timeLoss="87.44" speed="5.63" speedRelative="0.41" departed="3" arrived="0" entered="0" left="6" laneChangedFrom="0" laneChangedTo="0"/>
    </interval>
    <interval begin="100.00" end="110.00" id="1">
        <edge id="e_t" sampledSeconds="137.15" traveltime="23.17" overlapTraveltime="23.69" density="73.58" laneDensity="24.53" occupancy="12.08" waitingTime="27.00" timeLoss="58.29" speed="8.08" speedRelative="0.58" departed="6" arrived="0" entered="0" left="7" laneChangedFrom="0" laneChangedTo="0"/>
        <edge id="n_t" sampledSeconds="98.00" traveltime="72.31" overlapTraveltime="74.25" density="52.58" laneDensity="17.53" occupancy="8.76" waitingTime="80.00" timeLoss="80.86" speed="2.58" speedRelative="0.19" departed="3" arrived="0" entered="0" left="0" laneChangedFrom="0" laneChangedTo="0"/>
        <edge id="s_t" sampledSeconds="98.00" traveltime="66.65" overlapTraveltime="68.44" density="52.58" laneDensity="17.53" occupancy="8.76" waitingTime="80.00" timeLoss="80.72" speed="2.80" speedRelative="0.20" departed="3" arrived="0" entered="0" left="0" laneChangedFrom="0" laneChangedTo="0"/>
        <edge id="t_e" sampledSeconds="78.30" traveltime="15.58" overlapTraveltime="15.97" density="42.01" laneDensity="14.00" occupancy="6.86" waitingTime="0.00" timeLoss="8.05" speed="11.99" speedRelative="0.86" departed="0" arrived="3" entered="5" left="0" laneChangedFrom="0" laneChangedTo="0"/>
        <edge id="t_n" sampledSeconds="23.70" traveltime="15.00" overlapTraveltime="15.41" density="12.71" laneDensity="4.24" occupancy="2.04" waitingTime="0.00" timeLoss="2.84" speed="12.42" speedRelative="0.89" departed="0" arrived="2" entered="2" left="0" laneChangedFrom="0" laneChangedTo="0"/>
        <edge id="t_s" sampledSeconds="18.71" traveltime="14.39" overlapTraveltime="14.76" density="10.04" laneDensity="3.35" occupancy="1.56" waitingTime="0.00" timeLoss="1.79" speed="12.96" speedRelative="0.93" departed="0" arrived="3" entered="2" left="0" laneChangedFrom="0" laneChangedTo="0"/>
        <edge id="t_w" sampledSeconds="80.81" traveltime="16.22" overlapTraveltime="16.66" density="43.36" laneDensity="14.45" occupancy="7.10" waitingTime="0.00" timeLoss="9.62" speed="11.49" speedRelative="0.83" departed="0" arrived="0" entered="6" left="0" laneChangedFrom="1" laneChangedTo="1"/>
        <edge id="w_t" sampledSeconds="126.61" traveltime="22.69" overlapTraveltime="23.20" density="67.92" laneDensity="22.64" occupancy="11.16" waitingTime="28.00" timeLoss="52.64" speed="8.25" speedRelative="0.59" departed="6" arrived="0" entered="0" left="7" laneChangedFrom="0" laneChangedTo="0"/>
    </interval>
    <interval begin="110.00" end="120.00" id="1">
        <edge id="e_t" sampledSeconds="133.61" traveltime="35.04" overlapTraveltime="35.90" density="71.68" laneDensity="23.89" occupancy="11.92" waitingTime="63.00" timeLoss="81.13" speed="5.33" speedRelative="0.38" departed="3" arrived="0" entered="0" left="1" laneChangedFrom="0" laneChangedTo="0"/>
        <edge id="n_t" sampledSeconds="97.67" traveltime="60.35" overlapTraveltime="60.33" density="52.40" laneDensity="17.47" occupancy="8.57" waitingTime="58.00" timeLoss="75.40" speed="3.17" speedRelative="0.23" departed="0" arrived="0" entered="0" left="4" laneChangedFrom="0" laneChangedTo="0"/>
        <edge id="s_t" sampledSeconds="95.35" traveltime="63.22" overlapTraveltime="62.68" density="51.15" laneDensity="17.05" occupancy="8.39" waitingTime="57.00" timeLoss="76.23" speed="3.05" speedRelative="0.22" departed="0" arrived="0" entered="0" left="5" laneChangedFrom="0" laneChangedTo="0"/>
        <edge id="t_e" sampledSeconds="80.61" traveltime="16.32" overlapTraveltime="16.74" density="43.25" laneDensity="14.42" occupancy="7.07" waitingTime="0.00" timeLoss="15.14" speed="11.43" speedRelative="0.82" departed="0" arrived="5" entered="3" left="0" laneChangedFrom="0" laneChangedTo="0"/>
        <edge id="t_n" sampledSeconds="28.24" traveltime="14.53" overlapTraveltime="14.90" density="15.15" laneDensity="5.05" occupancy="2.44" waitingTime="0.00" timeLoss="3.50" speed="12.84" speedRelative="0.92" departed="0" arrived="1" entered="3" left="0" laneChangedFrom="0" laneChangedTo="0"/>
        <edge id="t_s" sampledSeconds="25.27" traveltime="15.41" overlapTraveltime="15.82" density="13.55" laneDensity="4.52" occupancy="2.18" waitingTime="0.00" timeLoss="3.47" speed="12.10" speedRelative="0.87" departed="0" arrived="0" entered="3" left="0" laneChangedFrom="0" laneChangedTo="0"/>
        <edge id="t_w" sampledSeconds="75.58" traveltime="15.90" overlapTraveltime="16.30" density="40.55" laneDensity="13.52" occupancy="6.60" waitingTime="0.00" timeLoss="9.90" speed="11.74" speedRelative="0.85" departed="0" arrived="8" entered="2" left="0" laneChangedFrom="0" laneChangedTo="0"/>
        <edge id="w_t" sampledSeconds="117.84" traveltime="29.82" overlapTraveltime="30.56" density="63.22" laneDensity="21.07" occupancy="10.47" waitingTime="54.00" timeLoss="65.60" speed="6.26" speedRelative="0.45" departed="3" arrived="0" entered="0" left="2" laneChangedFrom="0" laneChangedTo="0"/>
    </interval>