<?xml version="1.0" encoding="UTF-8"?>

<!-- generated on 2025-06-11 16:51:58 by Eclipse SUMO sumo Version 1.16.0
<configuration xmlns:xsi="http://www.w3.org/2001/XMLSchema-instance" xsi:noNamespaceSchemaLocation="http://sumo.dlr.de/xsd/sumoConfiguration.xsd">

    <input>
        <net-file value="nets/syc/1x1/Heavy_low/syc_4phases.net.xml"/>
        <route-files value="nets/syc/1x1/Heavy_low/heavy_low.rou.xml"/>
        <additional-files value="nets/syc/1x1/Heavy_low/1x1_outputs.add.xml"/>
    </input>

    <output>
        <fcd-output value="nets/syc/1x1/Heavy_low/output/fcd_output.xml"/>
        <tripinfo-output value="nets/syc/1x1/Heavy_low/output/tripinfo.out.xml"/>
    </output>

    <time>
        <begin value="0"/>
        <end value="1000"/>
    </time>

    <processing>
        <time-to-teleport value="-1"/>
        <waiting-time-memory value="1000"/>
        <max-depart-delay value="-1"/>
    </processing>

    <traci_server>
        <remote-port value="56246"/>
    </traci_server>

    <random_number>
        <seed value="0"/>
    </random_number>

</configuration>
-->

<fcd-export xmlns:xsi="http://www.w3.org/2001/XMLSchema-instance" xsi:noNamespaceSchemaLocation="http://sumo.dlr.de/xsd/fcd_file.xsd">
    <timestep time="0.00">
        <vehicle id="flow_en.0" x="194.90" y="8.00" angle="270.00" type="DEFAULT_VEHTYPE" speed="13.13" pos="5.10" lane="e_t_0" slope="0.00"/>
        <vehicle id="flow_es.0" x="194.90" y="1.60" angle="270.00" type="DEFAULT_VEHTYPE" speed="14.64" pos="5.10" lane="e_t_2" slope="0.00"/>
        <vehicle id="flow_ew.0" x="194.90" y="4.80" angle="270.00" type="DEFAULT_VEHTYPE" speed="10.62" pos="5.10" lane="e_t_1" slope="0.00"/>
        <vehicle id="flow_ne.0" x="-1.60" y="194.90" angle="180.00" type="DEFAULT_VEHTYPE" speed="14.31" pos="5.10" lane="n_t_2" slope="0.00"/>
        <vehicle id="flow_ns.0" x="-4.80" y="194.90" angle="180.00" type="DEFAULT_VEHTYPE" speed="15.51" pos="5.10" lane="n_t_1" slope="0.00"/>
        <vehicle id="flow_nw.0" x="-8.00" y="194.90" angle="180.00" type="DEFAULT_VEHTYPE" speed="14.56" pos="5.10" lane="n_t_0" slope="0.00"/>
        <vehicle id="flow_se.0" x="8.00" y="-194.90" angle="0.00" type="DEFAULT_VEHTYPE" speed="16.05" pos="5.10" lane="s_t_0" slope="0.00"/>
        <vehicle id="flow_sn.0" x="4.80" y="-194.90" angle="0.00" type="DEFAULT_VEHTYPE" speed="12.27" pos="5.10" lane="s_t_1" slope="0.00"/>
        <vehicle id="flow_sw.0" x="1.60" y="-194.90" angle="0.00" type="DEFAULT_VEHTYPE" speed="14.10" pos="5.10" lane="s_t_2" slope="0.00"/>
        <vehicle id="flow_we.0" x="-194.90" y="-4.80" angle="90.00" type="DEFAULT_VEHTYPE" speed="15.63" pos="5.10" lane="w_t_1" slope="0.00"/>
        <vehicle id="flow_wn.0" x="-194.90" y="-1.60" angle="90.00" type="DEFAULT_VEHTYPE" speed="17.61" pos="5.10" lane="w_t_2" slope="0.00"/>
        <vehicle id="flow_ws.0" x="-194.90" y="-8.00" angle="90.00" type="DEFAULT_VEHTYPE" speed="13.13" pos="5.10" lane="w_t_0" slope="0.00"/>
    </timestep>
    <timestep time="1.00">
        <vehicle id="flow_en.0" x="181.97" y="8.00" angle="270.00" type="DEFAULT_VEHTYPE" speed="12.93" pos="18.03" lane="e_t_0" slope="0.00"/>
        <vehicle id="flow_es.0" x="180.93" y="1.60" angle="270.00" type="DEFAULT_VEHTYPE" speed="13.97" pos="19.07" lane="e_t_2" slope="0.00"/>
        <vehicle id="flow_ew.0" x="185.29" y="4.80" angle="270.00" type="DEFAULT_VEHTYPE" speed="9.61" pos="14.71" lane="e_t_1" slope="0.00"/>
        <vehicle id="flow_ne.0" x="-1.60" y="180.98" angle="180.00" type="DEFAULT_VEHTYPE" speed="13.92" pos="19.02" lane="n_t_2" slope="0.00"/>
        <vehicle id="flow_ns.0" x="-4.80" y="179.68" angle="180.00" type="DEFAULT_VEHTYPE" speed="15.22" pos="20.32" lane="n_t_1" slope="0.00"/>
        <vehicle id="flow_nw.0" x="-8.00" y="181.44" angle="180.00" type="DEFAULT_VEHTYPE" speed="13.46" pos="18.56" lane="n_t_0" slope="0.00"/>
        <vehicle id="flow_se.0" x="8.00" y="-179.69" angle="0.00" type="DEFAULT_VEHTYPE" speed="15.21" pos="20.31" lane="s_t_0" slope="0.00"/>
        <vehicle id="flow_sn.0" x="4.80" y="-182.76" angle="0.00" type="DEFAULT_VEHTYPE" speed="12.14" pos="17.24" lane="s_t_1" slope="0.00"/>
        <vehicle id="flow_sw.0" x="1.60" y="-181.56" angle="0.00" type="DEFAULT_VEHTYPE" speed="13.34" pos="18.44" lane="s_t_2" slope="0.00"/>
        <vehicle id="flow_we.0" x="-179.32" y="-4.80" angle="90.00" type="DEFAULT_VEHTYPE" speed="15.58" pos="20.68" lane="w_t_1" slope="0.00"/>
        <vehicle id="flow_wn.0" x="-177.88" y="-1.60" angle="90.00" type="DEFAULT_VEHTYPE" speed="17.02" pos="22.12" lane="w_t_2" slope="0.00"/>
        <vehicle id="flow_ws.0" x="-182.10" y="-8.00" angle="90.00" type="DEFAULT_VEHTYPE" speed="12.80" pos="17.90" lane="w_t_0" slope="0.00"/>
    </timestep>
    <timestep time="2.00">
        <vehicle id="flow_en.0" x="169.42" y="8.00" angle="270.00" type="DEFAULT_VEHTYPE" speed="12.55" pos="30.58" lane="e_t_0" slope="0.00"/>
        <vehicle id="flow_es.0" x="167.48" y="1.60" angle="270.00" type="DEFAULT_VEHTYPE" speed="13.44" pos="32.52" lane="e_t_2" slope="0.00"/>
        <vehicle id="flow_ew.0" x="175.47" y="4.80" angle="270.00" type="DEFAULT_VEHTYPE" speed="9.83" pos="24.53" lane="e_t_1" slope="0.00"/>
        <vehicle id="flow_ne.0" x="-1.60" y="166.91" angle="180.00" type="DEFAULT_VEHTYPE" speed="14.07" pos="33.09" lane="n_t_2" slope="0.00"/>
        <vehicle id="flow_ns.0" x="-4.80" y="164.60" angle="180.00" type="DEFAULT_VEHTYPE" speed="15.08" pos="35.40" lane="n_t_1" slope="0.00"/>
        <vehicle id="flow_nw.0" x="-8.00" y="167.94" angle="180.00" type="DEFAULT_VEHTYPE" speed="13.50" pos="32.06" lane="n_t_0" slope="0.00"/>
        <vehicle id="flow_se.0" x="8.00" y="-163.74" angle="0.00" type="DEFAULT_VEHTYPE" speed="15.96" pos="36.26" lane="s_t_0" slope="0.00"/>
        <vehicle id="flow_sn.0" x="4.80" y="-171.05" angle="0.00" type="DEFAULT_VEHTYPE" speed="11.71" pos="28.95" lane="s_t_1" slope="0.00"/>
        <vehicle id="flow_sw.0" x="1.60" y="-168.61" angle="0.00" type="DEFAULT_VEHTYPE" speed="12.95" pos="31.39" lane="s_t_2" slope="0.00"/>
        <vehicle id="flow_we.0" x="-163.94" y="-4.80" angle="90.00" type="DEFAULT_VEHTYPE" speed="15.38" pos="36.06" lane="w_t_1" slope="0.00"/>
        <vehicle id="flow_wn.0" x="-160.86" y="-1.60" angle="90.00" type="DEFAULT_VEHTYPE" speed="17.03" pos="39.14" lane="w_t_2" slope="0.00"/>
        <vehicle id="flow_ws.0" x="-169.86" y="-8.00" angle="90.00" type="DEFAULT_VEHTYPE" speed="12.23" pos="30.14" lane="w_t_0" slope="0.00"/>
    </timestep>
    <timestep time="3.00">
        <vehicle id="flow_en.0" x="157.25" y="8.00" angle="270.00" type="DEFAULT_VEHTYPE" speed="12.17" pos="42.75" lane="e_t_0" slope="0.00"/>
        <vehicle id="flow_es.0" x="153.85" y="1.60" angle="270.00" type="DEFAULT_VEHTYPE" speed="13.64" pos="46.15" lane="e_t_2" slope="0.00"/>
        <vehicle id="flow_ew.0" x="165.16" y="4.80" angle="270.00" type="DEFAULT_VEHTYPE" speed="10.31" pos="34.84" lane="e_t_1" slope="0.00"/>
        <vehicle id="flow_ne.0" x="-1.60" y="153.29" angle="180.00" type="DEFAULT_VEHTYPE" speed="13.62" pos="46.71" lane="n_t_2" slope="0.00"/>
        <vehicle id="flow_ns.0" x="-4.80" y="149.78" angle="180.00" type="DEFAULT_VEHTYPE" speed="14.83" pos="50.22" lane="n_t_1" slope="0.00"/>
        <vehicle id="flow_nw.0" x="-8.00" y="153.61" angle="180.00" type="DEFAULT_VEHTYPE" speed="14.33" pos="46.39" lane="n_t_0" slope="0.00"/>
        <vehicle id="flow_se.0" x="8.00" y="-148.34" angle="0.00" type="DEFAULT_VEHTYPE" speed="15.40" pos="51.66" lane="s_t_0" slope="0.00"/>
        <vehicle id="flow_sn.0" x="4.80" y="-159.78" angle="0.00" type="DEFAULT_VEHTYPE" speed="11.28" pos="40.22" lane="s_t_1" slope="0.00"/>
        <vehicle id="flow_sw.0" x="1.60" y="-155.68" angle="0.00" type="DEFAULT_VEHTYPE" speed="12.94" pos="44.32" lane="s_t_2" slope="0.00"/>
        <vehicle id="flow_we.0" x="-149.32" y="-4.80" angle="90.00" type="DEFAULT_VEHTYPE" speed="14.62" pos="50.68" lane="w_t_1" slope="0.00"/>
        <vehicle id="flow_wn.0" x="-143.65" y="-1.60" angle="90.00" type="DEFAULT_VEHTYPE" speed="17.21" pos="56.35" lane="w_t_2" slope="0.00"/>
        <vehicle id="flow_ws.0" x="-157.32" y="-8.00" angle="90.00" type="DEFAULT_VEHTYPE" speed="12.54" pos="42.68" lane="w_t_0" slope="0.00"/>
    </timestep>
    <timestep time="4.00">
        <vehicle id="flow_en.0" x="145.25" y="8.00" angle="270.00" type="DEFAULT_VEHTYPE" speed="12.00" pos="54.75" lane="e_t_0" slope="0.00"/>
        <vehicle id="flow_es.0" x="140.06" y="1.60" angle="270.00" type="DEFAULT_VEHTYPE" speed="13.78" pos="59.94" lane="e_t_2" slope="0.00"/>
        <vehicle id="flow_ew.0" x="155.66" y="4.80" angle="270.00" type="DEFAULT_VEHTYPE" speed="9.50" pos="44.34" lane="e_t_1" slope="0.00"/>
        <vehicle id="flow_ne.0" x="-1.60" y="140.08" angle="180.00" type="DEFAULT_VEHTYPE" speed="13.21" pos="59.92" lane="n_t_2" slope="0.00"/>
        <vehicle id="flow_ns.0" x="-4.80" y="134.35" angle="180.00" type="DEFAULT_VEHTYPE" speed="15.43" pos="65.65" lane="n_t_1" slope="0.00"/>
        <vehicle id="flow_nw.0" x="-8.00" y="139.81" angle="180.00" type="DEFAULT_VEHTYPE" speed="13.79" pos="60.19" lane="n_t_0" slope="0.00"/>
        <vehicle id="flow_se.0" x="8.00" y="-132.85" angle="0.00" type="DEFAULT_VEHTYPE" speed="15.49" pos="67.15" lane="s_t_0" slope="0.00"/>
        <vehicle id="flow_sn.0" x="4.80" y="-148.05" angle="0.00" type="DEFAULT_VEHTYPE" speed="11.73" pos="51.95" lane="s_t_1" slope="0.00"/>
        <vehicle id="flow_sw.0" x="1.60" y="-142.82" angle="0.00" type="DEFAULT_VEHTYPE" speed="12.86" pos="57.18" lane="s_t_2" slope="0.00"/>
        <vehicle id="flow_we.0" x="-134.24" y="-4.80" angle="90.00" type="DEFAULT_VEHTYPE" speed="15.08" pos="65.76" lane="w_t_1" slope="0.00"/>
        <vehicle id="flow_wn.0" x="-126.92" y="-1.60" angle="90.00" type="DEFAULT_VEHTYPE" speed="16.73" pos="73.08" lane="w_t_2" slope="0.00"/>
        <vehicle id="flow_ws.0" x="-145.06" y="-8.00" angle="90.00" type="DEFAULT_VEHTYPE" speed="12.26" pos="54.94" lane="w_t_0" slope="0.00"/>
    </timestep>
    <timestep time="5.00">
        <vehicle id="flow_en.0" x="132.46" y="8.00" angle="270.00" type="DEFAULT_VEHTYPE" speed="12.79" pos="67.54" lane="e_t_0" slope="0.00"/>
        <vehicle id="flow_es.0" x="126.55" y="1.60" angle="270.00" type="DEFAULT_VEHTYPE" speed="13.51" pos="73.45" lane="e_t_2" slope="0.00"/>
        <vehicle id="flow_ew.0" x="146.11" y="4.80" angle="270.00" type="DEFAULT_VEHTYPE" speed="9.55" pos="53.89" lane="e_t_1" slope="0.00"/>
        <vehicle id="flow_ne.0" x="-1.60" y="126.02" angle="180.00" type="DEFAULT_VEHTYPE" speed="14.06" pos="73.98" lane="n_t_2" slope="0.00"/>
        <vehicle id="flow_ns.0" x="-4.80" y="119.56" angle="180.00" type="DEFAULT_VEHTYPE" speed="14.79" pos="80.44" lane="n_t_1" slope="0.00"/>
        <vehicle id="flow_nw.0" x="-8.00" y="125.32" angle="180.00" type="DEFAULT_VEHTYPE" speed="14.49" pos="74.68" lane="n_t_0" slope="0.00"/>
        <vehicle id="flow_se.0" x="8.00" y="-117.94" angle="0.00" type="DEFAULT_VEHTYPE" speed="14.91" pos="82.06" lane="s_t_0" slope="0.00"/>
        <vehicle id="flow_sn.0" x="4.80" y="-136.10" angle="0.00" type="DEFAULT_VEHTYPE" speed="11.95" pos="63.90" lane="s_t_1" slope="0.00"/>
        <vehicle id="flow_sw.0" x="1.60" y="-129.87" angle="0.00" type="DEFAULT_VEHTYPE" speed="12.94" pos="70.13" lane="s_t_2" slope="0.00"/>
        <vehicle id="flow_we.0" x="-118.72" y="-4.80" angle="90.00" type="DEFAULT_VEHTYPE" speed="15.51" pos="81.28" lane="w_t_1" slope="0.00"/>
        <vehicle id="flow_wn.0" x="-109.61" y="-1.60" angle="90.00" type="DEFAULT_VEHTYPE" speed="17.31" pos="90.39" lane="w_t_2" slope="0.00"/>
        <vehicle id="flow_ws.0" x="-132.47" y="-8.00" angle="90.00" type="DEFAULT_VEHTYPE" speed="12.59" pos="67.53" lane="w_t_0" slope="0.00"/>
    </timestep>
    <timestep time="6.00">
        <vehicle id="flow_en.0" x="119.44" y="8.00" angle="270.00" type="DEFAULT_VEHTYPE" speed="13.02" pos="80.56" lane="e_t_0" slope="0.00"/>
        <vehicle id="flow_es.0" x="112.39" y="1.60" angle="270.00" type="DEFAULT_VEHTYPE" speed="14.17" pos="87.61" lane="e_t_2" slope="0.00"/>
        <vehicle id="flow_ew.0" x="136.65" y="4.80" angle="270.00" type="DEFAULT_VEHTYPE" speed="9.46" pos="63.35" lane="e_t_1" slope="0.00"/>
        <vehicle id="flow_ne.0" x="-1.60" y="112.87" angle="180.00" type="DEFAULT_VEHTYPE" speed="13.15" pos="87.13" lane="n_t_2" slope="0.00"/>
        <vehicle id="flow_ns.0" x="-4.80" y="104.45" angle="180.00" type="DEFAULT_VEHTYPE" speed="15.10" pos="95.55" lane="n_t_1" slope="0.00"/>
        <vehicle id="flow_nw.0" x="-8.00" y="110.90" angle="180.00" type="DEFAULT_VEHTYPE" speed="14.42" pos="89.10" lane="n_t_0" slope="0.00"/>
        <vehicle id="flow_se.0" x="8.00" y="-102.20" angle="0.00" type="DEFAULT_VEHTYPE" speed="15.74" pos="97.80" lane="s_t_0" slope="0.00"/>
        <vehicle id="flow_sn.0" x="4.80" y="-124.77" angle="0.00" type="DEFAULT_VEHTYPE" speed="11.34" pos="75.23" lane="s_t_1" slope="0.00"/>
        <vehicle id="flow_sw.0" x="1.60" y="-117.01" angle="0.00" type="DEFAULT_VEHTYPE" speed="12.86" pos="82.99" lane="s_t_2" slope="0.00"/>
        <vehicle id="flow_we.0" x="-103.63" y="-4.80" angle="90.00" type="DEFAULT_VEHTYPE" speed="15.09" pos="96.37" lane="w_t_1" slope="0.00"/>
        <vehicle id="flow_wn.0" x="-92.31" y="-1.60" angle="90.00" type="DEFAULT_VEHTYPE" speed="17.29" pos="107.69" lane="w_t_2" slope="0.00"/>
        <vehicle id="flow_ws.0" x="-120.54" y="-8.00" angle="90.00" type="DEFAULT_VEHTYPE" speed="11.93" pos="79.46" lane="w_t_0" slope="0.00"/>
    </timestep>
    <timestep time="7.00">
        <vehicle id="flow_en.0" x="107.01" y="8.00" angle="270.00" type="DEFAULT_VEHTYPE" speed="12.44" pos="92.99" lane="e_t_0" slope="0.00"/>
        <vehicle id="flow_es.0" x="97.76" y="1.60" angle="270.00" type="DEFAULT_VEHTYPE" speed="14.63" pos="102.24" lane="e_t_2" slope="0.00"/>
        <vehicle id="flow_ew.0" x="127.29" y="4.80" angle="270.00" type="DEFAULT_VEHTYPE" speed="9.36" pos="72.71" lane="e_t_1" slope="0.00"/>
        <vehicle id="flow_ne.0" x="-1.60" y="98.65" angle="180.00" type="DEFAULT_VEHTYPE" speed="14.22" pos="101.35" lane="n_t_2" slope="0.00"/>
        <vehicle id="flow_ns.0" x="-4.80" y="89.01" angle="180.00" type="DEFAULT_VEHTYPE" speed="15.45" pos="110.99" lane="n_t_1" slope="0.00"/>
        <vehicle id="flow_nw.0" x="-8.00" y="96.81" angle="180.00" type="DEFAULT_VEHTYPE" speed="14.09" pos="103.19" lane="n_t_0" slope="0.00"/>
        <vehicle id="flow_se.0" x="8.00" y="-86.38" angle="0.00" type="DEFAULT_VEHTYPE" speed="15.82" pos="113.62" lane="s_t_0" slope="0.00"/>
        <vehicle id="flow_sn.0" x="4.80" y="-112.68" angle="0.00" type="DEFAULT_VEHTYPE" speed="12.09" pos="87.32" lane="s_t_1" slope="0.00"/>
        <vehicle id="flow_sw.0" x="1.60" y="-103.97" angle="0.00" type="DEFAULT_VEHTYPE" speed="13.04" pos="96.03" lane="s_t_2" slope="0.00"/>
        <vehicle id="flow_we.0" x="-88.82" y="-4.80" angle="90.00" type="DEFAULT_VEHTYPE" speed="14.81" pos="111.18" lane="w_t_1" slope="0.00"/>
        <vehicle id="flow_wn.0" x="-75.06" y="-1.60" angle="90.00" type="DEFAULT_VEHTYPE" speed="17.25" pos="124.94" lane="w_t_2" slope="0.00"/>
        <vehicle id="flow_ws.0" x="-107.75" y="-8.00" angle="90.00" type="DEFAULT_VEHTYPE" speed="12.79" pos="92.25" lane="w_t_0" slope="0.00"/>
    </timestep>
    <timestep time="8.00">
        <vehicle id="flow_en.0" x="94.81" y="8.00" angle="270.00" type="DEFAULT_VEHTYPE" speed="12.19" pos="105.19" lane="e_t_0" slope="0.00"/>
        <vehicle id="flow_en.1" x="194.90" y="8.00" angle="270.00" type="DEFAULT_VEHTYPE" speed="12.94" pos="5.10" lane="e_t_0" slope="0.00"/>
        <vehicle id="flow_es.0" x="83.31" y="1.60" angle="270.00" type="DEFAULT_VEHTYPE" speed="14.45" pos="116.69" lane="e_t_2" slope="0.00"/>
        <vehicle id="flow_es.1" x="194.90" y="1.60" angle="270.00" type="DEFAULT_VEHTYPE" speed="14.41" pos="5.10" lane="e_t_2" slope="0.00"/>
        <vehicle id="flow_ew.0" x="116.91" y="4.80" angle="270.00" type="DEFAULT_VEHTYPE" speed="10.38" pos="83.09" lane="e_t_1" slope="0.00"/>
        <vehicle id="flow_ew.1" x="194.90" y="4.80" angle="270.00" type="DEFAULT_VEHTYPE" speed="13.70" pos="5.10" lane="e_t_1" slope="0.00"/>
        <vehicle id="flow_ne.0" x="-1.60" y="85.39" angle="180.00" type="DEFAULT_VEHTYPE" speed="13.26" pos="114.61" lane="n_t_2" slope="0.00"/>
        <vehicle id="flow_ns.0" x="-4.80" y="73.68" angle="180.00" type="DEFAULT_VEHTYPE" speed="15.32" pos="126.32" lane="n_t_1" slope="0.00"/>
        <vehicle id="flow_nw.0" x="-8.00" y="83.31" angle="180.00" type="DEFAULT_VEHTYPE" speed="13.50" pos="116.69" lane="n_t_0" slope="0.00"/>
        <vehicle id="flow_se.0" x="8.00" y="-71.51" angle="0.00" type="DEFAULT_VEHTYPE" speed="14.87" pos="128.49" lane="s_t_0" slope="0.00"/>
        <vehicle id="flow_sn.0" x="4.80" y="-100.75" angle="0.00" type="DEFAULT_VEHTYPE" speed="11.93" pos="99.25" lane="s_t_1" slope="0.00"/>
        <vehicle id="flow_sw.0" x="1.60" y="-90.67" angle="0.00" type="DEFAULT_VEHTYPE" speed="13.29" pos="109.33" lane="s_t_2" slope="0.00"/>
        <vehicle id="flow_we.0" x="-73.77" y="-4.80" angle="90.00" type="DEFAULT_VEHTYPE" speed="15.05" pos="126.23" lane="w_t_1" slope="0.00"/>
        <vehicle id="flow_we.1" x="-194.90" y="-4.80" angle="90.00" type="DEFAULT_VEHTYPE" speed="14.68" pos="5.10" lane="w_t_1" slope="0.00"/>
        <vehicle id="flow_wn.0" x="-57.49" y="-1.60" angle="90.00" type="DEFAULT_VEHTYPE" speed="17.57" pos="142.51" lane="w_t_2" slope="0.00"/>
        <vehicle id="flow_wn.1" x="-194.90" y="-1.60" angle="90.00" type="DEFAULT_VEHTYPE" speed="14.46" pos="5.10" lane="w_t_2" slope="0.00"/>
        <vehicle id="flow_ws.0" x="-94.77" y="-8.00" angle="90.00" type="DEFAULT_VEHTYPE" speed="12.98" pos="105.23" lane="w_t_0" slope="0.00"/>
        <vehicle id="flow_ws.1" x="-194.90" y="-8.00" angle="90.00" type="DEFAULT_VEHTYPE" speed="10.06" pos="5.10" lane="w_t_0" slope="0.00"/>
    </timestep>
    <timestep time="9.00">
        <vehicle id="flow_en.0" x="81.70" y="8.00" angle="270.00" type="DEFAULT_VEHTYPE" speed="13.11" pos="118.30" lane="e_t_0" slope="0.00"/>
        <vehicle id="flow_en.1" x="182.41" y="8.00" angle="270.00" type="DEFAULT_VEHTYPE" speed="12.49" pos="17.59" lane="e_t_0" slope="0.00"/>
        <vehicle id="flow_es.0" x="69.07" y="1.60" angle="270.00" type="DEFAULT_VEHTYPE" speed="14.24" pos="130.93" lane="e_t_2" slope="0.00"/>
        <vehicle id="flow_es.1" x="180.75" y="1.60" angle="270.00" type="DEFAULT_VEHTYPE" speed="14.15" pos="19.25" lane="e_t_2" slope="0.00"/>
        <vehicle id="flow_ew.0" x="107.55" y="4.80" angle="270.00" type="DEFAULT_VEHTYPE" speed="9.35" pos="92.45" lane="e_t_1" slope="0.00"/>
        <vehicle id="flow_ew.1" x="182.18" y="4.80" angle="270.00" type="DEFAULT_VEHTYPE" speed="12.72" pos="17.82" lane="e_t_1" slope="0.00"/>
        <vehicle id="flow_ne.0" x="-1.60" y="72.11" angle="180.00" type="DEFAULT_VEHTYPE" speed="13.28" pos="127.89" lane="n_t_2" slope="0.00"/>
        <vehicle id="flow_ns.0" x="-4.80" y="58.65" angle="180.00" type="DEFAULT_VEHTYPE" speed="15.04" pos="141.35" lane="n_t_1" slope="0.00"/>
        <vehicle id="flow_nw.0" x="-8.00" y="69.11" angle="180.00" type="DEFAULT_VEHTYPE" speed="14.20" pos="130.89" lane="n_t_0" slope="0.00"/>
        <vehicle id="flow_se.0" x="8.00" y="-56.56" angle="0.00" type="DEFAULT_VEHTYPE" speed="14.95" pos="143.44" lane="s_t_0" slope="0.00"/>
        <vehicle id="flow_sn.0" x="4.80" y="-88.91" angle="0.00" type="DEFAULT_VEHTYPE" speed="11.84" pos="111.09" lane="s_t_1" slope="0.00"/>
        <vehicle id="flow_sw.0" x="1.60" y="-76.62" angle="0.00" type="DEFAULT_VEHTYPE" speed="14.06" pos="123.38" lane="s_t_2" slope="0.00"/>
        <vehicle id="flow_we.0" x="-58.16" y="-4.80" angle="90.00" type="DEFAULT_VEHTYPE" speed="15.62" pos="141.84" lane="w_t_1" slope="0.00"/>
        <vehicle id="flow_we.1" x="-180.35" y="-4.80" angle="90.00" type="DEFAULT_VEHTYPE" speed="14.55" pos="19.65" lane="w_t_1" slope="0.00"/>
        <vehicle id="flow_wn.0" x="-41.08" y="-1.60" angle="90.00" type="DEFAULT_VEHTYPE" speed="16.41" pos="158.92" lane="w_t_2" slope="0.00"/>
        <vehicle id="flow_wn.1" x="-181.35" y="-1.60" angle="90.00" type="DEFAULT_VEHTYPE" speed="13.55" pos="18.65" lane="w_t_2" slope="0.00"/>
        <vehicle id="flow_ws.0" x="-82.77" y="-8.00" angle="90.00" type="DEFAULT_VEHTYPE" speed="12.00" pos="117.23" lane="w_t_0" slope="0.00"/>
        <vehicle id="flow_ws.1" x="-185.82" y="-8.00" angle="90.00" type="DEFAULT_VEHTYPE" speed="9.08" pos="14.18" lane="w_t_0" slope="0.00"/>
    </timestep>
    <timestep time="10.00">
        <vehicle id="flow_en.0" x="69.76" y="8.00" angle="270.00" type="DEFAULT_VEHTYPE" speed="11.94" pos="130.24" lane="e_t_0" slope="0.00"/>
        <vehicle id="flow_en.1" x="169.51" y="8.00" angle="270.00" type="DEFAULT_VEHTYPE" speed="12.90" pos="30.49" lane="e_t_0" slope="0.00"/>
        <vehicle id="flow_es.0" x="55.67" y="1.60" angle="270.00" type="DEFAULT_VEHTYPE" speed="13.40" pos="144.33" lane="e_t_2" slope="0.00"/>
        <vehicle id="flow_es.1" x="166.62" y="1.60" angle="270.00" type="DEFAULT_VEHTYPE" speed="14.13" pos="33.38" lane="e_t_2" slope="0.00"/>
        <vehicle id="flow_ew.0" x="97.53" y="4.80" angle="270.00" type="DEFAULT_VEHTYPE" speed="10.03" pos="102.47" lane="e_t_1" slope="0.00"/>
        <vehicle id="flow_ew.1" x="169.46" y="4.80" angle="270.00" type="DEFAULT_VEHTYPE" speed="12.73" pos="30.54" lane="e_t_1" slope="0.00"/>
        <vehicle id="flow_ne.0" x="-1.60" y="58.34" angle="180.00" type="DEFAULT_VEHTYPE" speed="13.77" pos="141.66" lane="n_t_2" slope="0.00"/>
        <vehicle id="flow_ns.0" x="-4.80" y="44.06" angle="180.00" type="DEFAULT_VEHTYPE" speed="14.59" pos="155.94" lane="n_t_1" slope="0.00"/>
        <vehicle id="flow_nw.0" x="-8.00" y="55.75" angle="180.00" type="DEFAULT_VEHTYPE" speed="13.36" pos="144.25" lane="n_t_0" slope="0.00"/>
        <vehicle id="flow_se.0" x="8.00" y="-40.77" angle="0.00" type="DEFAULT_VEHTYPE" speed="15.79" pos="159.23" lane="s_t_0" slope="0.00"/>
        <vehicle id="flow_sn.0" x="4.80" y="-77.52" angle="0.00" type="DEFAULT_VEHTYPE" speed="11.39" pos="122.48" lane="s_t_1" slope="0.00"/>
        <vehicle id="flow_sw.0" x="1.60" y="-63.35" angle="0.00" type="DEFAULT_VEHTYPE" speed="13.27" pos="136.65" lane="s_t_2" slope="0.00"/>
        <vehicle id="flow_we.0" x="-43.74" y="-4.80" angle="90.00" type="DEFAULT_VEHTYPE" speed="14.42" pos="156.26" lane="w_t_1" slope="0.00"/>
        <vehicle id="flow_we.1" x="-166.66" y="-4.80" angle="90.00" type="DEFAULT_VEHTYPE" speed="13.69" pos="33.34" lane="w_t_1" slope="0.00"/>
        <vehicle id="flow_wn.0" x="-27.90" y="-1.60" angle="90.00" type="DEFAULT_VEHTYPE" speed="13.18" pos="172.10" lane="w_t_2" slope="0.00"/>
        <vehicle id="flow_wn.1" x="-167.56" y="-1.60" angle="90.00" type="DEFAULT_VEHTYPE" speed="13.79" pos="32.44" lane="w_t_2" slope="0.00"/>
        <vehicle id="flow_ws.0" x="-69.88" y="-8.00" angle="90.00" type="DEFAULT_VEHTYPE" speed="12.89" pos="130.12" lane="w_t_0" slope="0.00"/>
        <vehicle id="flow_ws.1" x="-176.55" y="-8.00" angle="90.00" type="DEFAULT_VEHTYPE" speed="9.26" pos="23.45" lane="w_t_0" slope="0.00"/>
    </timestep>
    <timestep time="11.00">
        <vehicle id="flow_en.0" x="57.80" y="8.00" angle="270.00" type="DEFAULT_VEHTYPE" speed="11.96" pos="142.20" lane="e_t_0" slope="0.00"/>
        <vehicle id="flow_en.1" x="156.95" y="8.00" angle="270.00" type="DEFAULT_VEHTYPE" speed="12.56" pos="43.05" lane="e_t_0" slope="0.00"/>
        <vehicle id="flow_es.0" x="41.70" y="1.60" angle="270.00" type="DEFAULT_VEHTYPE" speed="13.97" pos="158.30" lane="e_t_2" slope="0.00"/>
        <vehicle id="flow_es.1" x="152.62" y="1.60" angle="270.00" type="DEFAULT_VEHTYPE" speed="14.00" pos="47.38" lane="e_t_2" slope="0.00"/>
        <vehicle id="flow_ew.0" x="87.70" y="4.80" angle="270.00" type="DEFAULT_VEHTYPE" speed="9.83" pos="112.30" lane="e_t_1" slope="0.00"/>
        <vehicle id="flow_ew.1" x="156.55" y="4.80" angle="270.00" type="DEFAULT_VEHTYPE" speed="12.91" pos="43.45" lane="e_t_1" slope="0.00"/>
        <vehicle id="flow_ne.0" x="-1.60" y="44.88" angle="180.00" type="DEFAULT_VEHTYPE" speed="13.45" pos="155.12" lane="n_t_2" slope="0.00"/>
        <vehicle id="flow_ns.0" x="-4.80" y="30.23" angle="180.00" type="DEFAULT_VEHTYPE" speed="13.82" pos="169.77" lane="n_t_1" slope="0.00"/>
        <vehicle id="flow_nw.0" x="-8.00" y="41.88" angle="180.00" type="DEFAULT_VEHTYPE" speed="13.87" pos="158.12" lane="n_t_0" slope="0.00"/>
        <vehicle id="flow_se.0" x="8.00" y="-25.91" angle="0.00" type="DEFAULT_VEHTYPE" speed="14.86" pos="174.09" lane="s_t_0" slope="0.00"/>
        <vehicle id="flow_sn.0" x="4.80" y="-65.37" angle="0.00" type="DEFAULT_VEHTYPE" speed="12.16" pos="134.63" lane="s_t_1" slope="0.00"/>
        <vehicle id="flow_sw.0" x="1.60" y="-50.14" angle="0.00" type="DEFAULT_VEHTYPE" speed="13.20" pos="149.86" lane="s_t_2" slope="0.00"/>
        <vehicle id="flow_we.0" x="-28.66" y="-4.80" angle="90.00" type="DEFAULT_VEHTYPE" speed="15.08" pos="171.34" lane="w_t_1" slope="0.00"/>
        <vehicle id="flow_we.1" x="-152.41" y="-4.80" angle="90.00" type="DEFAULT_VEHTYPE" speed="14.24" pos="47.59" lane="w_t_1" slope="0.00"/>
        <vehicle id="flow_wn.0" x="-19.22" y="-1.60" angle="90.00" type="DEFAULT_VEHTYPE" speed="8.68" pos="180.78" lane="w_t_2" slope="0.00"/>
        <vehicle id="flow_wn.1" x="-153.88" y="-1.60" angle="90.00" type="DEFAULT_VEHTYPE" speed="13.67" pos="46.12" lane="w_t_2" slope="0.00"/>
        <vehicle id="flow_ws.0" x="-56.78" y="-8.00" angle="90.00" type="DEFAULT_VEHTYPE" speed="13.10" pos="143.22" lane="w_t_0" slope="0.00"/>
        <vehicle id="flow_ws.1" x="-167.60" y="-8.00" angle="90.00" type="DEFAULT_VEHTYPE" speed="8.95" pos="32.40" lane="w_t_0" slope="0.00"/>
    </timestep>
    <timestep time="12.00">
        <vehicle id="flow_en.0" x="44.72" y="8.00" angle="270.00" type="DEFAULT_VEHTYPE" speed="13.09" pos="155.28" lane="e_t_0" slope="0.00"/>
        <vehicle id="flow_en.1" x="144.11" y="8.00" angle="270.00" type="DEFAULT_VEHTYPE" speed="12.84" pos="55.89" lane="e_t_0" slope="0.00"/>
        <vehicle id="flow_es.0" x="28.59" y="1.60" angle="270.00" type="DEFAULT_VEHTYPE" speed="13.11" pos="171.41" lane="e_t_2" slope="0.00"/>
        <vehicle id="flow_es.1" x="138.68" y="1.60" angle="270.00" type="DEFAULT_VEHTYPE" speed="13.94" pos="61.32" lane="e_t_2" slope="0.00"/>
        <vehicle id="flow_ew.0" x="78.09" y="4.80" angle="270.00" type="DEFAULT_VEHTYPE" speed="9.61" pos="121.91" lane="e_t_1" slope="0.00"/>
        <vehicle id="flow_ew.1" x="143.88" y="4.80" angle="270.00" type="DEFAULT_VEHTYPE" speed="12.67" pos="56.12" lane="e_t_1" slope="0.00"/>
        <vehicle id="flow_ne.0" x="-1.60" y="30.71" angle="180.00" type="DEFAULT_VEHTYPE" speed="14.17" pos="169.29" lane="n_t_2" slope="0.00"/>
        <vehicle id="flow_ns.0" x="-4.80" y="20.72" angle="180.00" type="DEFAULT_VEHTYPE" speed="9.51" pos="179.28" lane="n_t_1" slope="0.00"/>
        <vehicle id="flow_nw.0" x="-8.00" y="27.35" angle="180.00" type="DEFAULT_VEHTYPE" speed="14.53" pos="172.65" lane="n_t_0" slope="0.00"/>
        <vehicle id="flow_se.0" x="8.00" y="-13.90" angle="0.00" type="DEFAULT_VEHTYPE" speed="12.01" pos="186.10" lane="s_t_0" slope="0.00"/>
        <vehicle id="flow_sn.0" x="4.80" y="-53.15" angle="0.00" type="DEFAULT_VEHTYPE" speed="12.21" pos="146.85" lane="s_t_1" slope="0.00"/>
        <vehicle id="flow_sw.0" x="1.60" y="-37.28" angle="0.00" type="DEFAULT_VEHTYPE" speed="12.87" pos="162.72" lane="s_t_2" slope="0.00"/>
        <vehicle id="flow_we.0" x="-13.36" y="-4.80" angle="90.00" type="DEFAULT_VEHTYPE" speed="15.30" pos="0.24" lane=":t_10_0" slope="0.00"/>
        <vehicle id="flow_we.1" x="-138.26" y="-4.80" angle="90.00" type="DEFAULT_VEHTYPE" speed="14.15" pos="61.74" lane="w_t_1" slope="0.00"/>
        <vehicle id="flow_wn.0" x="-15.02" y="-1.60" angle="90.00" type="DEFAULT_VEHTYPE" speed="4.20" pos="184.98" lane="w_t_2" slope="0.00"/>
        <vehicle id="flow_wn.1" x="-139.79" y="-1.60" angle="90.00" type="DEFAULT_VEHTYPE" speed="14.09" pos="60.21" lane="w_t_2" slope="0.00"/>
        <vehicle id="flow_ws.0" x="-44.89" y="-8.00" angle="90.00" type="DEFAULT_VEHTYPE" speed="11.89" pos="155.11" lane="w_t_0" slope="0.00"/>
        <vehicle id="flow_ws.1" x="-158.69" y="-8.00" angle="90.00" type="DEFAULT_VEHTYPE" speed="8.92" pos="41.31" lane="w_t_0" slope="0.00"/>
    </timestep>
    <timestep time="13.00">
        <vehicle id="flow_en.0" x="32.83" y="8.00" angle="270.00" type="DEFAULT_VEHTYPE" speed="11.89" pos="167.17" lane="e_t_0" slope="0.00"/>
        <vehicle id="flow_en.1" x="132.11" y="8.00" angle="270.00" type="DEFAULT_VEHTYPE" speed="12.00" pos="67.89" lane="e_t_0" slope="0.00"/>
        <vehicle id="flow_es.0" x="19.98" y="1.60" angle="270.00" type="DEFAULT_VEHTYPE" speed="8.61" pos="180.02" lane="e_t_2" slope="0.00"/>
        <vehicle id="flow_es.1" x="124.97" y="1.60" angle="270.00" type="DEFAULT_VEHTYPE" speed="13.71" pos="75.03" lane="e_t_2" slope="0.00"/>
        <vehicle id="flow_ew.0" x="68.31" y="4.80" angle="270.00" type="DEFAULT_VEHTYPE" speed="9.78" pos="131.69" lane="e_t_1" slope="0.00"/>
        <vehicle id="flow_ew.1" x="130.68" y="4.80" angle="270.00" type="DEFAULT_VEHTYPE" speed="13.20" pos="69.32" lane="e_t_1" slope="0.00"/>
        <vehicle id="flow_ne.0" x="-1.60" y="21.04" angle="180.00" type="DEFAULT_VEHTYPE" speed="9.67" pos="178.96" lane="n_t_2" slope="0.00"/>
        <vehicle id="flow_ns.0" x="-4.80" y="15.71" angle="180.00" type="DEFAULT_VEHTYPE" speed="5.01" pos="184.29" lane="n_t_1" slope="0.00"/>
        <vehicle id="flow_nw.0" x="-8.00" y="16.42" angle="180.00" type="DEFAULT_VEHTYPE" speed="10.93" pos="183.58" lane="n_t_0" slope="0.00"/>