<?xml version="1.0" encoding="UTF-8"?>

<!-- generated on 2025-06-11 16:51:58 by Eclipse SUMO sumo Version 1.16.0
<configuration xmlns:xsi="http://www.w3.org/2001/XMLSchema-instance" xsi:noNamespaceSchemaLocation="http://sumo.dlr.de/xsd/sumoConfiguration.xsd">

    <input>
        <net-file value="nets/syc/1x1/Heavy_low/syc_4phases.net.xml"/>
        <route-files value="nets/syc/1x1/Heavy_low/heavy_low.rou.xml"/>
        <additional-files value="nets/syc/1x1/Heavy_low/1x1_outputs.add.xml"/>
    </input>

    <output>
        <fcd-output value="nets/syc/1x1/Heavy_low/output/fcd_output.xml"/>
        <tripinfo-output value="nets/syc/1x1/Heavy_low/output/tripinfo.out.xml"/>
    </output>

    <time>
        <begin value="0"/>
        <end value="1000"/>
    </time>

    <processing>
        <time-to-teleport value="-1"/>
        <waiting-time-memory value="1000"/>
        <max-depart-delay value="-1"/>
    </processing>

    <traci_server>
        <remote-port value="56246"/>
    </traci_server>

    <random_number>
        <seed value="0"/>
    </random_number>

</configuration>
-->

<tripinfos xmlns:xsi="http://www.w3.org/2001/XMLSchema-instance" xsi:noNamespaceSchemaLocation="http://sumo.dlr.de/xsd/tripinfo_file.xsd">
    <tripinfo id="flow_se.0" depart="0.00" departLane="s_t_0" departPos="5.10" departSpeed="16.05" departDelay="0.00" arrival="27.00" arrivalLane="t_e_0" arrivalPos="186.40" arrivalSpeed="15.66" duration="27.00" routeLength="376.73" waitingTime="0.00" waitingCount="0" stopTime="0.00" timeLoss="2.69" rerouteNo="0" devices="tripinfo_flow_se.0 fcd_flow_se.0" vType="DEFAULT_VEHTYPE" speedFactor="1.16" vaporized=""/>
    <tripinfo id="flow_we.0" depart="0.00" departLane="w_t_1" departPos="5.10" departSpeed="15.63" departDelay="0.00" arrival="27.00" arrivalLane="t_e_1" arrivalPos="186.40" arrivalSpeed="15.28" duration="27.00" routeLength="394.90" waitingTime="0.00" waitingCount="0" stopTime="0.00" timeLoss="1.09" rerouteNo="0" devices="tripinfo_flow_we.0 fcd_flow_we.0" vType="DEFAULT_VEHTYPE" speedFactor="1.13" vaporized=""/>
    <tripinfo id="flow_nw.0" depart="0.00" departLane="n_t_0" departPos="5.10" departSpeed="14.56" departDelay="0.00" arrival="30.00" arrivalLane="t_w_0" arrivalPos="186.40" arrivalSpeed="14.26" duration="30.00" routeLength="376.73" waitingTime="0.00" waitingCount="0" stopTime="0.00" timeLoss="3.08" rerouteNo="0" devices="tripinfo_flow_nw.0 fcd_flow_nw.0" vType="DEFAULT_VEHTYPE" speedFactor="1.05" vaporized=""/>
    <tripinfo id="flow_en.0" depart="0.00" departLane="e_t_0" departPos="5.10" departSpeed="13.13" departDelay="0.00" arrival="33.00" arrivalLane="t_n_0" arrivalPos="186.40" arrivalSpeed="12.21" duration="33.00" routeLength="376.73" waitingTime="0.00" waitingCount="0" stopTime="0.00" timeLoss="3.53" rerouteNo="0" devices="tripinfo_flow_en.0 fcd_flow_en.0" vType="DEFAULT_VEHTYPE" speedFactor="0.95" vaporized=""/>
    <tripinfo id="flow_wn.0" depart="0.00" departLane="w_t_2" departPos="5.10" departSpeed="17.61" departDelay="0.00" arrival="33.00" arrivalLane="t_n_2" arrivalPos="186.40" arrivalSpeed="17.36" duration="33.00" routeLength="392.21" waitingTime="3.00" waitingCount="1" stopTime="0.00" timeLoss="9.50" rerouteNo="0" devices="tripinfo_flow_wn.0 fcd_flow_wn.0" vType="DEFAULT_VEHTYPE" speedFactor="1.27" vaporized=""/>
    <tripinfo id="flow_ws.0" depart="0.00" departLane="w_t_0" departPos="5.10" departSpeed="13.13" departDelay="0.00" arrival="33.00" arrivalLane="t_s_0" arrivalPos="186.40" arrivalSpeed="12.16" duration="33.00" routeLength="376.73" waitingTime="0.00" waitingCount="0" stopTime="0.00" timeLoss="3.46" rerouteNo="0" devices="tripinfo_flow_ws.0 fcd_flow_ws.0" vType="DEFAULT_VEHTYPE" speedFactor="0.95" vaporized=""/>
    <tripinfo id="flow_es.0" depart="0.00" departLane="e_t_2" departPos="5.10" departSpeed="14.64" departDelay="0.00" arrival="35.00" arrivalLane="t_s_2" arrivalPos="186.40" arrivalSpeed="14.18" duration="35.00" routeLength="392.21" waitingTime="0.00" waitingCount="0" stopTime="0.00" timeLoss="7.20" rerouteNo="0" devices="tripinfo_flow_es.0 fcd_flow_es.0" vType="DEFAULT_VEHTYPE" speedFactor="1.05" vaporized=""/>
    <tripinfo id="flow_wn.1" depart="8.00" departLane="w_t_2" departPos="5.10" departSpeed="14.46" departDelay="0.80" arrival="39.00" arrivalLane="t_n_2" arrivalPos="186.40" arrivalSpeed="14.11" duration="31.00" routeLength="392.21" waitingTime="0.00" waitingCount="0" stopTime="0.00" timeLoss="2.94" rerouteNo="0" devices="tripinfo_flow_wn.1 fcd_flow_wn.1" vType="DEFAULT_VEHTYPE" speedFactor="1.04" vaporized=""/>
    <tripinfo id="flow_es.1" depart="8.00" departLane="e_t_2" departPos="5.10" departSpeed="14.41" departDelay="0.80" arrival="40.00" arrivalLane="t_s_2" arrivalPos="186.40" arrivalSpeed="13.32" duration="32.00" routeLength="392.21" waitingTime="0.00" waitingCount="0" stopTime="0.00" timeLoss="3.42" rerouteNo="0" devices="tripinfo_flow_es.1 fcd_flow_es.1" vType="DEFAULT_VEHTYPE" speedFactor="1.04" vaporized=""/>
    <tripinfo id="flow_en.1" depart="8.00" departLane="e_t_0" departPos="5.10" departSpeed="12.94" departDelay="0.80" arrival="41.00" arrivalLane="t_n_0" arrivalPos="186.40" arrivalSpeed="12.55" duration="33.00" routeLength="376.73" waitingTime="0.00" waitingCount="0" stopTime="0.00" timeLoss="3.25" rerouteNo="0" devices="tripinfo_flow_en.1 fcd_flow_en.1" vType="DEFAULT_VEHTYPE" speedFactor="0.93" vaporized=""/>
    <tripinfo id="flow_es.2" depart="15.00" departLane="e_t_2" departPos="5.10" departSpeed="16.43" departDelay="0.60" arrival="42.00" arrivalLane="t_s_2" arrivalPos="186.40" arrivalSpeed="16.10" duration="27.00" routeLength="392.21" waitingTime="0.00" waitingCount="0" stopTime="0.00" timeLoss="2.45" rerouteNo="0" devices="tripinfo_flow_es.2 fcd_flow_es.2" vType="DEFAULT_VEHTYPE" speedFactor="1.18" vaporized=""/>
    <tripinfo id="flow_en.2" depart="15.00" departLane="e_t_0" departPos="5.10" departSpeed="15.38" departDelay="0.60" arrival="44.00" arrivalLane="t_n_0" arrivalPos="186.40" arrivalSpeed="14.94" duration="29.00" routeLength="376.73" waitingTime="0.00" waitingCount="0" stopTime="0.00" timeLoss="3.55" rerouteNo="0" devices="tripinfo_flow_en.2 fcd_flow_en.2" vType="DEFAULT_VEHTYPE" speedFactor="1.11" vaporized=""/>
    <tripinfo id="flow_wn.2" depart="15.00" departLane="w_t_2" departPos="5.10" departSpeed="12.30" departDelay="0.60" arrival="51.00" arrivalLane="t_n_2" arrivalPos="186.40" arrivalSpeed="11.36" duration="36.00" routeLength="392.21" waitingTime="0.00" waitingCount="0" stopTime="0.00" timeLoss="3.20" rerouteNo="0" devices="tripinfo_flow_wn.2 fcd_flow_wn.2" vType="DEFAULT_VEHTYPE" speedFactor="0.89" vaporized=""/>
    <tripinfo id="flow_ws.1" depart="8.00" departLane="w_t_0" departPos="5.10" departSpeed="10.06" departDelay="0.80" arrival="52.00" arrivalLane="t_s_0" arrivalPos="186.40" arrivalSpeed="9.50" duration="44.00" routeLength="376.73" waitingTime="0.00" waitingCount="0" stopTime="0.00" timeLoss="4.35" rerouteNo="0" devices="tripinfo_flow_ws.1 fcd_flow_ws.1" vType="DEFAULT_VEHTYPE" speedFactor="0.72" vaporized=""/>
    <tripinfo id="flow_wn.3" depart="22.00" departLane="w_t_2" departPos="5.10" departSpeed="14.17" departDelay="0.40" arrival="53.00" arrivalLane="t_n_2" arrivalPos="186.40" arrivalSpeed="12.97" duration="31.00" routeLength="392.21" waitingTime="0.00" waitingCount="0" stopTime="0.00" timeLoss="2.83" rerouteNo="0" devices="tripinfo_flow_wn.3 fcd_flow_wn.3" vType="DEFAULT_VEHTYPE" speedFactor="1.02" vaporized=""/>
    <tripinfo id="flow_nw.1" depart="26.00" departLane="n_t_0" departPos="5.10" departSpeed="16.53" departDelay="0.29" arrival="53.00" arrivalLane="t_w_0" arrivalPos="186.40" arrivalSpeed="16.44" duration="27.00" routeLength="376.73" waitingTime="0.00" waitingCount="0" stopTime="0.00" timeLoss="3.24" rerouteNo="0" devices="tripinfo_flow_nw.1 fcd_flow_nw.1" vType="DEFAULT_VEHTYPE" speedFactor="1.19" vaporized=""/>
    <tripinfo id="flow_es.3" depart="22.00" departLane="e_t_2" departPos="5.10" departSpeed="13.57" departDelay="0.40" arrival="54.00" arrivalLane="t_s_2" arrivalPos="186.40" arrivalSpeed="13.55" duration="32.00" routeLength="392.21" waitingTime="0.00" waitingCount="0" stopTime="0.00" timeLoss="2.19" rerouteNo="0" devices="tripinfo_flow_es.3 fcd_flow_es.3" vType="DEFAULT_VEHTYPE" speedFactor="0.98" vaporized=""/>
    <tripinfo id="flow_ws.3" depart="22.00" departLane="w_t_0" departPos="5.10" departSpeed="14.63" departDelay="0.40" arrival="54.00" arrivalLane="t_s_1" arrivalPos="186.40" arrivalSpeed="14.61" duration="32.00" routeLength="376.73" waitingTime="0.00" waitingCount="0" stopTime="0.00" timeLoss="5.18" rerouteNo="0" devices="tripinfo_flow_ws.3 fcd_flow_ws.3" vType="DEFAULT_VEHTYPE" speedFactor="1.05" vaporized=""/>
    <tripinfo id="flow_se.1" depart="26.00" departLane="s_t_0" departPos="5.10" departSpeed="15.71" departDelay="0.29" arrival="54.00" arrivalLane="t_e_0" arrivalPos="186.40" arrivalSpeed="14.71" duration="28.00" routeLength="376.73" waitingTime="0.00" waitingCount="0" stopTime="0.00" timeLoss="3.11" rerouteNo="0" devices="tripinfo_flow_se.1 fcd_flow_se.1" vType="DEFAULT_VEHTYPE" speedFactor="1.13" vaporized=""/>
    <tripinfo id="flow_ws.2" depart="15.00" departLane="w_t_0" departPos="5.10" departSpeed="10.41" departDelay="0.60" arrival="56.00" arrivalLane="t_s_0" arrivalPos="186.40" arrivalSpeed="9.45" duration="41.00" routeLength="376.73" waitingTime="0.00" waitingCount="0" stopTime="0.00" timeLoss="3.89" rerouteNo="0" devices="tripinfo_flow_ws.2 fcd_flow_ws.2" vType="DEFAULT_VEHTYPE" speedFactor="0.75" vaporized=""/>
    <tripinfo id="flow_en.3" depart="22.00" departLane="e_t_0" departPos="5.10" departSpeed="13.07" departDelay="0.40" arrival="56.00" arrivalLane="t_n_0" arrivalPos="186.40" arrivalSpeed="12.63" duration="34.00" routeLength="376.73" waitingTime="0.00" waitingCount="0" stopTime="0.00" timeLoss="3.84" rerouteNo="0" devices="tripinfo_flow_en.3 fcd_flow_en.3" vType="DEFAULT_VEHTYPE" speedFactor="0.94" vaporized=""/>
    <tripinfo id="flow_en.4" depart="29.00" departLane="e_t_0" departPos="5.10" departSpeed="14.59" departDelay="0.20" arrival="59.00" arrivalLane="t_n_0" arrivalPos="186.40" arrivalSpeed="14.07" duration="30.00" routeLength="376.73" waitingTime="0.00" waitingCount="0" stopTime="0.00" timeLoss="3.09" rerouteNo="0" devices="tripinfo_flow_en.4 fcd_flow_en.4" vType="DEFAULT_VEHTYPE" speedFactor="1.05" vaporized=""/>
    <tripinfo id="flow_ws.4" depart="29.00" departLane="w_t_0" departPos="5.10" departSpeed="14.00" departDelay="0.20" arrival="60.00" arrivalLane="t_s_0" arrivalPos="186.40" arrivalSpeed="13.23" duration="31.00" routeLength="376.73" waitingTime="0.00" waitingCount="0" stopTime="0.00" timeLoss="2.91" rerouteNo="0" devices="tripinfo_flow_ws.4 fcd_flow_ws.4" vType="DEFAULT_VEHTYPE" speedFactor="1.01" vaporized=""/>
    <tripinfo id="flow_es.4" depart="29.00" departLane="e_t_2" departPos="5.10" departSpeed="13.13" departDelay="0.20" arrival="63.00" arrivalLane="t_s_2" arrivalPos="186.40" arrivalSpeed="12.23" duration="34.00" routeLength="392.21" waitingTime="0.00" waitingCount="0" stopTime="0.00" timeLoss="2.97" rerouteNo="0" devices="tripinfo_flow_es.4 fcd_flow_es.4" vType="DEFAULT_VEHTYPE" speedFactor="0.94" vaporized=""/>
    <tripinfo id="flow_wn.4" depart="29.00" departLane="w_t_2" departPos="5.10" departSpeed="11.68" departDelay="0.20" arrival="67.00" arrivalLane="t_n_2" arrivalPos="186.40" arrivalSpeed="10.47" duration="38.00" routeLength="392.21" waitingTime="0.00" waitingCount="0" stopTime="0.00" timeLoss="3.53" rerouteNo="0" devices="tripinfo_flow_wn.4 fcd_flow_wn.4" vType="DEFAULT_VEHTYPE" speedFactor="0.84" vaporized=""/>
    <tripinfo id="flow_wn.5" depart="36.00" departLane="w_t_2" departPos="5.10" departSpeed="16.41" departDelay="0.00" arrival="69.00" arrivalLane="t_n_2" arrivalPos="186.40" arrivalSpeed="13.71" duration="33.00" routeLength="392.21" waitingTime="0.00" waitingCount="0" stopTime="0.00" timeLoss="8.11" rerouteNo="0" devices="tripinfo_flow_wn.5 fcd_flow_wn.5" vType="DEFAULT_VEHTYPE" speedFactor="1.18" vaporized=""/>
    <tripinfo id="flow_en.5" depart="36.00" departLane="e_t_0" departPos="5.10" departSpeed="12.61" departDelay="0.00" arrival="71.00" arrivalLane="t_n_0" arrivalPos="186.40" arrivalSpeed="12.61" duration="35.00" routeLength="376.73" waitingTime="0.00" waitingCount="0" stopTime="0.00" timeLoss="3.87" rerouteNo="0" devices="tripinfo_flow_en.5 fcd_flow_en.5" vType="DEFAULT_VEHTYPE" speedFactor="0.91" vaporized=""/>
    <tripinfo id="flow_es.5" depart="36.00" departLane="e_t_2" departPos="5.10" departSpeed="12.21" departDelay="0.00" arrival="72.00" arrivalLane="t_s_2" arrivalPos="186.40" arrivalSpeed="10.92" duration="36.00" routeLength="392.21" waitingTime="0.00" waitingCount="0" stopTime="0.00" timeLoss="2.94" rerouteNo="0" devices="tripinfo_flow_es.5 fcd_flow_es.5" vType="DEFAULT_VEHTYPE" speedFactor="0.88" vaporized=""/>
    <tripinfo id="flow_wn.6" depart="44.00" departLane="w_t_2" departPos="5.10" departSpeed="15.43" departDelay="0.80" arrival="73.00" arrivalLane="t_n_2" arrivalPos="186.40" arrivalSpeed="14.46" duration="29.00" routeLength="392.21" waitingTime="0.00" waitingCount="0" stopTime="0.00" timeLoss="2.67" rerouteNo="0" devices="tripinfo_flow_wn.6 fcd_flow_wn.6" vType="DEFAULT_VEHTYPE" speedFactor="1.11" vaporized=""/>
    <tripinfo id="flow_ws.5" depart="36.00" departLane="w_t_0" departPos="5.10" departSpeed="10.40" departDelay="0.00" arrival="77.00" arrivalLane="t_s_0" arrivalPos="186.40" arrivalSpeed="9.77" duration="41.00" routeLength="376.73" waitingTime="0.00" waitingCount="0" stopTime="0.00" timeLoss="3.79" rerouteNo="0" devices="tripinfo_flow_ws.5 fcd_flow_ws.5" vType="DEFAULT_VEHTYPE" speedFactor="0.75" vaporized=""/>
    <tripinfo id="flow_es.6" depart="44.00" departLane="e_t_2" departPos="5.10" departSpeed="12.88" departDelay="0.80" arrival="78.00" arrivalLane="t_s_2" arrivalPos="186.40" arrivalSpeed="12.76" duration="34.00" routeLength="392.21" waitingTime="0.00" waitingCount="0" stopTime="0.00" timeLoss="2.84" rerouteNo="0" devices="tripinfo_flow_es.6 fcd_flow_es.6" vType="DEFAULT_VEHTYPE" speedFactor="0.93" vaporized=""/>
    <tripinfo id="flow_ws.6" depart="44.00" departLane="w_t_0" departPos="5.10" departSpeed="12.26" departDelay="0.80" arrival="79.00" arrivalLane="t_s_0" arrivalPos="186.40" arrivalSpeed="11.50" duration="35.00" routeLength="376.73" waitingTime="0.00" waitingCount="0" stopTime="0.00" timeLoss="3.50" rerouteNo="0" devices="tripinfo_flow_ws.6 fcd_flow_ws.6" vType="DEFAULT_VEHTYPE" speedFactor="0.88" vaporized=""/>
    <tripinfo id="flow_wn.7" depart="51.00" departLane="w_t_2" departPos="5.10" departSpeed="16.94" departDelay="0.60" arrival="79.00" arrivalLane="t_n_2" arrivalPos="186.40" arrivalSpeed="16.83" duration="28.00" routeLength="392.21" waitingTime="0.00" waitingCount="0" stopTime="0.00" timeLoss="3.51" rerouteNo="0" devices="tripinfo_flow_wn.7 fcd_flow_wn.7" vType="DEFAULT_VEHTYPE" speedFactor="1.22" vaporized=""/>
    <tripinfo id="flow_en.6" depart="44.00" departLane="e_t_0" departPos="5.10" departSpeed="12.01" departDelay="0.80" arrival="80.00" arrivalLane="t_n_0" arrivalPos="186.40" arrivalSpeed="11.41" duration="36.00" routeLength="376.73" waitingTime="0.00" waitingCount="0" stopTime="0.00" timeLoss="3.34" rerouteNo="0" devices="tripinfo_flow_en.6 fcd_flow_en.6" vType="DEFAULT_VEHTYPE" speedFactor="0.86" vaporized=""/>
    <tripinfo id="flow_se.2" depart="52.00" departLane="s_t_0" departPos="5.10" departSpeed="14.16" departDelay="0.57" arrival="83.00" arrivalLane="t_e_0" arrivalPos="186.40" arrivalSpeed="13.63" duration="31.00" routeLength="376.73" waitingTime="0.00" waitingCount="0" stopTime="0.00" timeLoss="3.31" rerouteNo="0" devices="tripinfo_flow_se.2 fcd_flow_se.2" vType="DEFAULT_VEHTYPE" speedFactor="1.02" vaporized=""/>
    <tripinfo id="flow_en.7" depart="51.00" departLane="e_t_0" departPos="5.10" departSpeed="12.79" departDelay="0.60" arrival="85.00" arrivalLane="t_n_0" arrivalPos="186.40" arrivalSpeed="12.22" duration="34.00" routeLength="376.73" waitingTime="0.00" waitingCount="0" stopTime="0.00" timeLoss="3.26" rerouteNo="0" devices="tripinfo_flow_en.7 fcd_flow_en.7" vType="DEFAULT_VEHTYPE" speedFactor="0.92" vaporized=""/>
    <tripinfo id="flow_ws.7" depart="51.00" departLane="w_t_0" departPos="5.10" departSpeed="12.69" departDelay="0.60" arrival="85.00" arrivalLane="t_s_0" arrivalPos="186.40" arrivalSpeed="12.30" duration="34.00" routeLength="376.73" waitingTime="0.00" waitingCount="0" stopTime="0.00" timeLoss="3.30" rerouteNo="0" devices="tripinfo_flow_ws.7 fcd_flow_ws.7" vType="DEFAULT_VEHTYPE" speedFactor="0.91" vaporized=""/>
    <tripinfo id="flow_nw.2" depart="52.00" departLane="n_t_0" departPos="5.10" departSpeed="12.89" departDelay="0.57" arrival="86.00" arrivalLane="t_w_0" arrivalPos="186.40" arrivalSpeed="11.99" duration="34.00" routeLength="376.73" waitingTime="0.00" waitingCount="0" stopTime="0.00" timeLoss="3.37" rerouteNo="0" devices="tripinfo_flow_nw.2 fcd_flow_nw.2" vType="DEFAULT_VEHTYPE" speedFactor="0.93" vaporized=""/>
    <tripinfo id="flow_wn.8" depart="58.00" departLane="w_t_2" departPos="5.10" departSpeed="14.34" departDelay="0.40" arrival="89.00" arrivalLane="t_n_2" arrivalPos="186.40" arrivalSpeed="13.34" duration="31.00" routeLength="392.21" waitingTime="0.00" waitingCount="0" stopTime="0.00" timeLoss="2.98" rerouteNo="0" devices="tripinfo_flow_wn.8 fcd_flow_wn.8" vType="DEFAULT_VEHTYPE" speedFactor="1.03" vaporized=""/>
    <tripinfo id="flow_wn.9" depart="65.00" departLane="w_t_2" departPos="5.10" departSpeed="16.88" departDelay="0.20" arrival="92.00" arrivalLane="t_n_2" arrivalPos="186.40" arrivalSpeed="16.02" duration="27.00" routeLength="392.21" waitingTime="0.00" waitingCount="0" stopTime="0.00" timeLoss="2.80" rerouteNo="0" devices="tripinfo_flow_wn.9 fcd_flow_wn.9" vType="DEFAULT_VEHTYPE" speedFactor="1.22" vaporized=""/>
    <tripinfo id="flow_ws.8" depart="58.00" departLane="w_t_0" departPos="5.10" departSpeed="12.65" departDelay="0.40" arrival="93.00" arrivalLane="t_s_0" arrivalPos="186.40" arrivalSpeed="12.40" duration="35.00" routeLength="376.73" waitingTime="0.00" waitingCount="0" stopTime="0.00" timeLoss="4.05" rerouteNo="0" devices="tripinfo_flow_ws.8 fcd_flow_ws.8" vType="DEFAULT_VEHTYPE" speedFactor="0.91" vaporized=""/>
    <tripinfo id="flow_ws.9" depart="65.00" departLane="w_t_0" departPos="5.10" departSpeed="16.43" departDelay="0.20" arrival="94.00" arrivalLane="t_s_0" arrivalPos="186.40" arrivalSpeed="14.01" duration="29.00" routeLength="376.73" waitingTime="0.00" waitingCount="0" stopTime="0.00" timeLoss="5.54" rerouteNo="0" devices="tripinfo_flow_ws.9 fcd_flow_ws.9" vType="DEFAULT_VEHTYPE" speedFactor="1.18" vaporized=""/>
    <tripinfo id="flow_en.8" depart="58.00" departLane="e_t_0" departPos="5.10" departSpeed="11.48" departDelay="0.40" arrival="96.00" arrivalLane="t_n_0" arrivalPos="186.40" arrivalSpeed="10.73" duration="38.00" routeLength="376.73" waitingTime="0.00" waitingCount="0" stopTime="0.00" timeLoss="3.86" rerouteNo="0" devices="tripinfo_flow_en.8 fcd_flow_en.8" vType="DEFAULT_VEHTYPE" speedFactor="0.83" vaporized=""/>
    <tripinfo id="flow_es.8" depart="58.00" departLane="e_t_2" departPos="5.10" departSpeed="14.09" departDelay="0.40" arrival="96.00" arrivalLane="t_s_2" arrivalPos="186.40" arrivalSpeed="13.36" duration="38.00" routeLength="392.21" waitingTime="0.00" waitingCount="0" stopTime="0.00" timeLoss="8.98" rerouteNo="0" devices="tripinfo_flow_es.8 fcd_flow_es.8" vType="DEFAULT_VEHTYPE" speedFactor="1.01" vaporized=""/>
    <tripinfo id="flow_en.9" depart="65.00" departLane="e_t_0" departPos="5.10" departSpeed="14.58" departDelay="0.20" arrival="97.00" arrivalLane="t_n_0" arrivalPos="186.40" arrivalSpeed="13.76" duration="32.00" routeLength="376.73" waitingTime="0.00" waitingCount="0" stopTime="0.00" timeLoss="4.96" rerouteNo="0" devices="tripinfo_flow_en.9 fcd_flow_en.9" vType="DEFAULT_VEHTYPE" speedFactor="1.05" vaporized=""/>
    <tripinfo id="flow_es.7" depart="51.00" departLane="e_t_2" departPos="5.10" departSpeed="9.51" departDelay="0.60" arrival="98.00" arrivalLane="t_s_1" arrivalPos="186.40" arrivalSpeed="8.24" duration="47.00" routeLength="392.21" waitingTime="0.00" waitingCount="0" stopTime="0.00" timeLoss="4.03" rerouteNo="0" devices="tripinfo_flow_es.7 fcd_flow_es.7" vType="DEFAULT_VEHTYPE" speedFactor="0.68" vaporized=""/>
    <tripinfo id="flow_es.9" depart="65.00" departLane="e_t_2" departPos="5.10" departSpeed="12.20" departDelay="0.20" arrival="101.00" arrivalLane="t_s_2" arrivalPos="186.40" arrivalSpeed="11.45" duration="36.00" routeLength="392.21" waitingTime="0.00" waitingCount="0" stopTime="0.00" timeLoss="2.85" rerouteNo="0" devices="tripinfo_flow_es.9 fcd_flow_es.9" vType="DEFAULT_VEHTYPE" speedFactor="0.88" vaporized=""/>
    <tripinfo id="flow_ws.10" depart="72.00" departLane="w_t_0" departPos="5.10" departSpeed="14.18" departDelay="0.00" arrival="103.00" arrivalLane="t_s_0" arrivalPos="186.40" arrivalSpeed="13.24" duration="31.00" routeLength="376.73" waitingTime="0.00" waitingCount="0" stopTime="0.00" timeLoss="3.24" rerouteNo="0" devices="tripinfo_flow_ws.10 fcd_flow_ws.10" vType="DEFAULT_VEHTYPE" speedFactor="1.02" vaporized=""/>
    <tripinfo id="flow_we.1" depart="8.00" departLane="w_t_1" departPos="5.10" departSpeed="14.68" departDelay="0.80" arrival="105.00" arrivalLane="t_e_1" arrivalPos="186.40" arrivalSpeed="13.65" duration="97.00" routeLength="394.90" waitingTime="62.00" waitingCount="1" stopTime="0.00" timeLoss="69.37" rerouteNo="0" devices="tripinfo_flow_we.1 fcd_flow_we.1" vType="DEFAULT_VEHTYPE" speedFactor="1.06" vaporized=""/>
    <tripinfo id="flow_en.10" depart="72.00" departLane="e_t_0" departPos="5.10" departSpeed="12.44" departDelay="0.00" arrival="107.00" arrivalLane="t_n_0" arrivalPos="186.40" arrivalSpeed="11.73" duration="35.00" routeLength="376.73" waitingTime="0.00" waitingCount="0" stopTime="0.00" timeLoss="3.49" rerouteNo="0" devices="tripinfo_flow_en.10 fcd_flow_en.10" vType="DEFAULT_VEHTYPE" speedFactor="0.90" vaporized=""/>
    <tripinfo id="flow_we.2" depart="15.00" departLane="w_t_1" departPos="5.10" departSpeed="13.97" departDelay="0.60" arrival="108.00" arrivalLane="t_e_1" arrivalPos="186.40" arrivalSpeed="13.40" duration="93.00" routeLength="394.90" waitingTime="57.00" waitingCount="1" stopTime="0.00" timeLoss="63.79" rerouteNo="0" devices="tripinfo_flow_we.2 fcd_flow_we.2" vType="DEFAULT_VEHTYPE" speedFactor="1.01" vaporized=""/>
    <tripinfo id="flow_en.11" depart="80.00" departLane="e_t_0" departPos="5.10" departSpeed="15.64" departDelay="0.80" arrival="108.00" arrivalLane="t_n_0" arrivalPos="186.40" arrivalSpeed="13.80" duration="28.00" routeLength="376.73" waitingTime="0.00" waitingCount="0" stopTime="0.00" timeLoss="3.37" rerouteNo="0" devices="tripinfo_flow_en.11 fcd_flow_en.11" vType="DEFAULT_VEHTYPE" speedFactor="1.13" vaporized=""/>
    <tripinfo id="flow_ws.11" depart="80.00" departLane="w_t_0" departPos="5.10" departSpeed="15.64" departDelay="0.80" arrival="108.00" arrivalLane="t_s_0" arrivalPos="186.40" arrivalSpeed="14.67" duration="28.00" routeLength="376.73" waitingTime="0.00" waitingCount="0" stopTime="0.00" timeLoss="2.54" rerouteNo="0" devices="tripinfo_flow_ws.11 fcd_flow_ws.11" vType="DEFAULT_VEHTYPE" speedFactor="1.13" vaporized=""/>
    <tripinfo id="flow_we.3" depart="22.00" departLane="w_t_1" departPos="5.10" departSpeed="14.38" departDelay="0.40" arrival="109.00" arrivalLane="t_e_1" arrivalPos="186.40" arrivalSpeed="13.27" duration="87.00" routeLength="394.90" waitingTime="50.00" waitingCount="1" stopTime="0.00" timeLoss="59.32" rerouteNo="0" devices="tripinfo_flow_we.3 fcd_flow_we.3" vType="DEFAULT_VEHTYPE" speedFactor="1.03" vaporized=""/>
    <tripinfo id="flow_ew.0" depart="0.00" departLane="e_t_1" departPos="5.10" departSpeed="10.62" departDelay="0.00" arrival="110.00" arrivalLane="t_w_1" arrivalPos="186.40" arrivalSpeed="10.41" duration="110.00" routeLength="394.90" waitingTime="65.00" waitingCount="1" stopTime="0.00" timeLoss="72.54" rerouteNo="0" devices="tripinfo_flow_ew.0 fcd_flow_ew.0" vType="DEFAULT_VEHTYPE" speedFactor="0.76" vaporized=""/>
    <tripinfo id="flow_nw.3" depart="78.00" departLane="n_t_0" departPos="5.10" departSpeed="13.56" departDelay="0.86" arrival="110.00" arrivalLane="t_w_0" arrivalPos="186.40" arrivalSpeed="12.48" duration="32.00" routeLength="376.73" waitingTime="0.00" waitingCount="0" stopTime="0.00" timeLoss="2.96" rerouteNo="0" devices="tripinfo_flow_nw.3 fcd_flow_nw.3" vType="DEFAULT_VEHTYPE" speedFactor="0.98" vaporized=""/>
    <tripinfo id="flow_ew.1" depart="8.00" departLane="e_t_1" departPos="5.10" departSpeed="13.70" departDelay="0.80" arrival="112.00" arrivalLane="t_w_1" arrivalPos="186.40" arrivalSpeed="13.34" duration="104.00" routeLength="394.90" waitingTime="63.00" waitingCount="1" stopTime="0.00" timeLoss="74.53" rerouteNo="0" devices="tripinfo_flow_ew.1 fcd_flow_ew.1" vType="DEFAULT_VEHTYPE" speedFactor="0.99" vaporized=""/>
    <tripinfo id="flow_ew.2" depart="15.00" departLane="e_t_1" departPos="5.10" departSpeed="13.04" departDelay="0.60" arrival="112.00" arrivalLane="t_w_2" arrivalPos="186.40" arrivalSpeed="12.58" duration="97.00" routeLength="394.90" waitingTime="58.00" waitingCount="1" stopTime="0.00" timeLoss="66.03" rerouteNo="0" devices="tripinfo_flow_ew.2 fcd_flow_ew.2" vType="DEFAULT_VEHTYPE" speedFactor="0.94" vaporized=""/>
    <tripinfo id="flow_se.3" depart="78.00" departLane="s_t_0" departPos="5.10" departSpeed="12.83" departDelay="0.86" arrival="112.00" arrivalLane="t_e_0" arrivalPos="186.40" arrivalSpeed="12.44" duration="34.00" routeLength="376.73" waitingTime="0.00" waitingCount="0" stopTime="0.00" timeLoss="3.34" rerouteNo="0" devices="tripinfo_flow_se.3 fcd_flow_se.3" vType="DEFAULT_VEHTYPE" speedFactor="0.92" vaporized=""/>
    <tripinfo id="flow_ew.3" depart="22.00" departLane="e_t_1" departPos="5.10" departSpeed="15.08" departDelay="0.40" arrival="113.00" arrivalLane="t_w_1" arrivalPos="186.40" arrivalSpeed="14.46" duration="91.00" routeLength="394.90" waitingTime="54.00" waitingCount="1" stopTime="0.00" timeLoss="64.75" rerouteNo="0" devices="tripinfo_flow_ew.3 fcd_flow_ew.3" vType="DEFAULT_VEHTYPE" speedFactor="1.09" vaporized=""/>
    <tripinfo id="flow_we.4" depart="29.00" departLane="w_t_1" departPos="5.10" departSpeed="12.35" departDelay="0.20" arrival="113.00" arrivalLane="t_e_1" arrivalPos="186.40" arrivalSpeed="12.24" duration="84.00" routeLength="394.90" waitingTime="45.00" waitingCount="1" stopTime="0.00" timeLoss="51.57" rerouteNo="0" devices="tripinfo_flow_we.4 fcd_flow_we.4" vType="DEFAULT_VEHTYPE" speedFactor="0.89" vaporized=""/>
    <tripinfo id="flow_ew.4" depart="29.00" departLane="e_t_1" departPos="5.10" departSpeed="12.24" departDelay="0.20" arrival="116.00" arrivalLane="t_w_1" arrivalPos="186.40" arrivalSpeed="12.15" duration="87.00" routeLength="394.90" waitingTime="46.00" waitingCount="1" stopTime="0.00" timeLoss="54.01" rerouteNo="0" devices="tripinfo_flow_ew.4 fcd_flow_ew.4" vType="DEFAULT_VEHTYPE" speedFactor="0.88" vaporized=""/>
    <tripinfo id="flow_we.5" depart="36.00" departLane="w_t_1" departPos="5.10" departSpeed="11.77" departDelay="0.00" arrival="116.00" arrivalLane="t_e_1" arrivalPos="186.40" arrivalSpeed="11.63" duration="80.00" routeLength="394.90" waitingTime="37.00" waitingCount="1" stopTime="0.00" timeLoss="45.61" rerouteNo="0" devices="tripinfo_flow_we.5 fcd_flow_we.5" vType="DEFAULT_VEHTYPE" speedFactor="0.85" vaporized=""/>
    <tripinfo id="flow_we.6" depart="44.00" departLane="w_t_1" departPos="5.10" departSpeed="13.23" departDelay="0.80" arrival="117.00" arrivalLane="t_e_1" arrivalPos="186.40" arrivalSpeed="13.04" duration="73.00" routeLength="394.90" waitingTime="33.00" waitingCount="1" stopTime="0.00" timeLoss="43.01" rerouteNo="0" devices="tripinfo_flow_we.6 fcd_flow_we.6" vType="DEFAULT_VEHTYPE" speedFactor="0.95" vaporized=""/>
    <tripinfo id="flow_ew.5" depart="36.00" departLane="e_t_1" departPos="5.10" departSpeed="12.85" departDelay="0.00" arrival="118.00" arrivalLane="t_w_1" arrivalPos="186.40" arrivalSpeed="11.73" duration="82.00" routeLength="394.90" waitingTime="41.00" waitingCount="1" stopTime="0.00" timeLoss="50.42" rerouteNo="0" devices="tripinfo_flow_ew.5 fcd_flow_ew.5" vType="DEFAULT_VEHTYPE" speedFactor="0.93" vaporized=""/>
    <tripinfo id="flow_en.12" depart="87.00" departLane="e_t_0" departPos="5.10" departSpeed="14.07" departDelay="0.60" arrival="118.00" arrivalLane="t_n_0" arrivalPos="186.40" arrivalSpeed="14.04" duration="31.00" routeLength="376.73" waitingTime="0.00" waitingCount="0" stopTime="0.00" timeLoss="3.00" rerouteNo="0" devices="tripinfo_flow_en.12 fcd_flow_en.12" vType="DEFAULT_VEHTYPE" speedFactor="1.01" vaporized=""/>
    <tripinfo id="flow_ew.6" depart="44.00" departLane="e_t_1" departPos="5.10" departSpeed="12.56" departDelay="0.80" arrival="119.00" arrivalLane="t_w_1" arrivalPos="186.40" arrivalSpeed="12.14" duration="75.00" routeLength="394.90" waitingTime="33.00" waitingCount="1" stopTime="0.00" timeLoss="43.39" rerouteNo="0" devices="tripinfo_flow_ew.6 fcd_flow_ew.6" vType="DEFAULT_VEHTYPE" speedFactor="0.90" vaporized=""/>
    <tripinfo id="flow_we.7" depart="51.00" departLane="w_t_1" departPos="5.10" departSpeed="13.14" departDelay="0.60" arrival="119.00" arrivalLane="t_e_1" arrivalPos="186.40" arrivalSpeed="11.99" duration="68.00" routeLength="394.90" waitingTime="28.00" waitingCount="1" stopTime="0.00" timeLoss="37.61" rerouteNo="0" devices="tripinfo_flow_we.7 fcd_flow_we.7" vType="DEFAULT_VEHTYPE" speedFactor="0.95" vaporized=""/>