<?xml version="1.0" encoding="UTF-8"?>

<!-- generated on 2024-05-18 15:16:20 by Eclipse SUMO libsumo Version 1.19.0
<configuration xmlns:xsi="http://www.w3.org/2001/XMLSchema-instance" xsi:noNamespaceSchemaLocation="http://sumo.dlr.de/xsd/libsumoConfiguration.xsd">

    <input>
        <net-file value="nets/syc/1x1/Equal_entries_500/syc_4phases.net.xml"/>
        <route-files value="nets/syc/1x1/Equal_entries_500/equal_entries_500.rou.xml"/>
        <additional-files value="nets/syc/1x1/Equal_entries_500/1x1_outputs.add.xml"/>
    </input>

    <output>
        <fcd-output value="nets/syc/1x1/Equal_entries_500/output/fcd_output.xml"/>
        <tripinfo-output value="nets/syc/1x1/Equal_entries_500/output/tripinfo.out.xml"/>
    </output>

    <time>
        <begin value="0"/>
        <end value="1000"/>
    </time>

    <processing>
        <time-to-teleport value="-1"/>
        <waiting-time-memory value="1000"/>
        <max-depart-delay value="-1"/>
    </processing>

    <random_number>
        <seed value="0"/>
    </random_number>

</configuration>
-->

<meandata xmlns:xsi="http://www.w3.org/2001/XMLSchema-instance" xsi:noNamespaceSchemaLocation="http://sumo.dlr.de/xsd/meandata_file.xsd">
    <interval begin="0.00" end="10.00" id="1">
        <edge id="e_t" sampledSeconds="30.00" traveltime="15.13" overlapTraveltime="15.54" density="16.09" laneDensity="5.36" occupancy="2.68" waitingTime="0.00" timeLoss="1.68" speed="12.32" speedRelative="0.89" departed="6" arrived="0" entered="0" left="0" laneChangedFrom="0" laneChangedTo="0"/>
        <edge id="n_t" sampledSeconds="30.00" traveltime="13.21" overlapTraveltime="13.57" density="16.09" laneDensity="5.36" occupancy="2.68" waitingTime="0.00" timeLoss="1.19" speed="14.11" speedRelative="1.02" departed="6" arrived="0" entered="0" left="0" laneChangedFrom="0" laneChangedTo="0"/>
        <edge id="s_t" sampledSeconds="30.00" traveltime="13.99" overlapTraveltime="14.36" density="16.09" laneDensity="5.36" occupancy="2.68" waitingTime="0.00" timeLoss="1.50" speed="13.33" speedRelative="0.96" departed="6" arrived="0" entered="0" left="0" laneChangedFrom="0" laneChangedTo="0"/>
        <edge id="t_e" sampledSeconds="0.00" departed="0" arrived="0" entered="0" left="0" laneChangedFrom="0" laneChangedTo="0"/>
        <edge id="t_n" sampledSeconds="0.00" departed="0" arrived="0" entered="0" left="0" laneChangedFrom="0" laneChangedTo="0"/>
        <edge id="t_s" sampledSeconds="0.00" departed="0" arrived="0" entered="0" left="0" laneChangedFrom="0" laneChangedTo="0"/>
        <edge id="t_w" sampledSeconds="0.00" departed="0" arrived="0" entered="0" left="0" laneChangedFrom="0" laneChangedTo="0"/>
        <edge id="w_t" sampledSeconds="30.00" traveltime="12.79" overlapTraveltime="13.13" density="16.09" laneDensity="5.36" occupancy="2.68" waitingTime="0.00" timeLoss="1.15" speed="14.58" speedRelative="1.05" departed="6" arrived="0" entered="0" left="0" laneChangedFrom="0" laneChangedTo="0"/>
    </interval>
    <interval begin="10.00" end="20.00" id="1">
        <edge id="e_t" sampledSeconds="69.00" traveltime="15.75" overlapTraveltime="16.29" density="37.02" laneDensity="12.34" occupancy="6.13" waitingTime="3.00" timeLoss="10.88" speed="11.75" speedRelative="0.85" departed="3" arrived="0" entered="0" left="1" laneChangedFrom="0" laneChangedTo="0"/>
        <edge id="n_t" sampledSeconds="66.09" traveltime="16.85" overlapTraveltime="17.66" density="35.46" laneDensity="11.82" occupancy="5.82" waitingTime="4.00" timeLoss="14.29" speed="10.84" speedRelative="0.78" departed="3" arrived="0" entered="0" left="2" laneChangedFrom="0" laneChangedTo="0"/>
        <edge id="s_t" sampledSeconds="63.94" traveltime="16.26" overlapTraveltime="16.81" density="34.30" laneDensity="11.43" occupancy="5.66" waitingTime="3.00" timeLoss="9.59" speed="11.38" speedRelative="0.82" departed="3" arrived="0" entered="0" left="2" laneChangedFrom="0" laneChangedTo="0"/>
        <edge id="t_e" sampledSeconds="10.59" traveltime="13.92" overlapTraveltime="14.29" density="5.68" laneDensity="1.89" occupancy="0.90" waitingTime="0.00" timeLoss="1.62" speed="13.39" speedRelative="0.96" departed="0" arrived="0" entered="2" left="0" laneChangedFrom="0" laneChangedTo="0"/>
        <edge id="t_n" sampledSeconds="2.30" traveltime="24.27" overlapTraveltime="24.92" density="1.23" laneDensity="0.41" occupancy="0.17" waitingTime="0.00" timeLoss="0.95" speed="7.68" speedRelative="0.55" departed="0" arrived="0" entered="2" left="0" laneChangedFrom="0" laneChangedTo="0"/>
        <edge id="t_s" sampledSeconds="2.24" traveltime="21.08" overlapTraveltime="21.64" density="1.20" laneDensity="0.40" occupancy="0.17" waitingTime="0.00" timeLoss="0.73" speed="8.84" speedRelative="0.64" departed="0" arrived="0" entered="1" left="0" laneChangedFrom="0" laneChangedTo="0"/>
        <edge id="t_w" sampledSeconds="4.27" traveltime="18.13" overlapTraveltime="18.61" density="2.29" laneDensity="0.76" occupancy="0.35" waitingTime="0.00" timeLoss="1.25" speed="10.28" speedRelative="0.74" departed="0" arrived="0" entered="1" left="0" laneChangedFrom="0" laneChangedTo="0"/>
        <edge id="w_t" sampledSeconds="62.43" traveltime="17.56" overlapTraveltime="18.11" density="33.49" laneDensity="11.16" occupancy="5.53" waitingTime="6.00" timeLoss="12.15" speed="10.57" speedRelative="0.76" departed="3" arrived="0" entered="0" left="2" laneChangedFrom="0" laneChangedTo="0"/>
    </interval>
    <interval begin="20.00" end="30.00" id="1">
        <edge id="e_t" sampledSeconds="93.01" traveltime="26.37" overlapTraveltime="27.10" density="49.90" laneDensity="16.63" occupancy="8.25" waitingTime="31.00" timeLoss="43.82" speed="7.06" speedRelative="0.51" departed="6" arrived="0" entered="0" left="2" laneChangedFrom="0" laneChangedTo="0"/>
        <edge id="n_t" sampledSeconds="79.49" traveltime="19.53" overlapTraveltime="20.18" density="42.65" laneDensity="14.22" occupancy="7.02" waitingTime="16.00" timeLoss="23.00" speed="9.48" speedRelative="0.68" departed="6" arrived="0" entered="0" left="3" laneChangedFrom="0" laneChangedTo="0"/>
        <edge id="s_t" sampledSeconds="82.78" traveltime="20.67" overlapTraveltime="21.30" density="44.41" laneDensity="14.80" occupancy="7.32" waitingTime="16.00" timeLoss="25.45" speed="8.99" speedRelative="0.65" departed="6" arrived="0" entered="0" left="3" laneChangedFrom="0" laneChangedTo="0"/>
        <edge id="t_e" sampledSeconds="15.66" traveltime="12.22" overlapTraveltime="12.55" density="8.40" laneDensity="2.80" occupancy="1.38" waitingTime="0.00" timeLoss="0.59" speed="15.26" speedRelative="1.10" departed="0" arrived="2" entered="0" left="0" laneChangedFrom="0" laneChangedTo="0"/>
        <edge id="t_n" sampledSeconds="33.02" traveltime="15.03" overlapTraveltime="15.44" density="17.72" laneDensity="5.91" occupancy="2.87" waitingTime="0.00" timeLoss="2.83" speed="12.40" speedRelative="0.89" departed="0" arrived="0" entered="3" left="0" laneChangedFrom="0" laneChangedTo="0"/>
        <edge id="t_s" sampledSeconds="21.97" traveltime="14.36" overlapTraveltime="14.74" density="11.79" laneDensity="3.93" occupancy="1.93" waitingTime="0.00" timeLoss="1.49" speed="12.98" speedRelative="0.93" departed="0" arrived="0" entered="2" left="0" laneChangedFrom="0" laneChangedTo="0"/>
        <edge id="t_w" sampledSeconds="14.78" traveltime="15.15" overlapTraveltime="15.55" density="7.93" laneDensity="2.64" occupancy="1.28" waitingTime="0.00" timeLoss="2.10" speed="12.31" speedRelative="0.89" departed="0" arrived="0" entered="1" left="0" laneChangedFrom="0" laneChangedTo="0"/>
        <edge id="w_t" sampledSeconds="90.39" traveltime="21.77" overlapTraveltime="22.53" density="48.49" laneDensity="16.16" occupancy="8.03" waitingTime="17.00" timeLoss="31.79" speed="8.50" speedRelative="0.61" departed="6" arrived="0" entered="0" left="1" laneChangedFrom="0" laneChangedTo="0"/>
    </interval>
    <interval begin="30.00" end="40.00" id="1">
        <edge id="e_t" sampledSeconds="117.39" traveltime="27.63" overlapTraveltime="28.57" density="62.98" laneDensity="20.99" occupancy="10.34" waitingTime="38.00" timeLoss="53.96" speed="6.70" speedRelative="0.48" departed="3" arrived="0" entered="0" left="4" laneChangedFrom="0" laneChangedTo="0"/>
        <edge id="n_t" sampledSeconds="99.86" traveltime="25.65" overlapTraveltime="26.32" density="53.57" laneDensity="17.86" occupancy="8.88" waitingTime="32.00" timeLoss="42.38" speed="7.27" speedRelative="0.52" departed="3" arrived="0" entered="0" left="2" laneChangedFrom="0" laneChangedTo="0"/>
        <edge id="s_t" sampledSeconds="100.29" traveltime="23.22" overlapTraveltime="24.03" density="53.80" laneDensity="17.93" occupancy="8.87" waitingTime="30.00" timeLoss="39.97" speed="7.96" speedRelative="0.57" departed="3" arrived="0" entered="0" left="2" laneChangedFrom="0" laneChangedTo="0"/>
        <edge id="t_e" sampledSeconds="16.41" traveltime="20.82" overlapTraveltime="21.38" density="8.80" laneDensity="2.93" occupancy="1.35" waitingTime="0.00" timeLoss="4.00" speed="8.95" speedRelative="0.64" departed="0" arrived="0" entered="3" left="0" laneChangedFrom="1" laneChangedTo="1"/>
        <edge id="t_n" sampledSeconds="48.70" traveltime="14.01" overlapTraveltime="14.39" density="26.13" laneDensity="8.71" occupancy="4.23" waitingTime="0.00" timeLoss="4.63" speed="13.30" speedRelative="0.96" departed="0" arrived="4" entered="3" left="0" laneChangedFrom="0" laneChangedTo="0"/>
        <edge id="t_s" sampledSeconds="48.25" traveltime="16.30" overlapTraveltime="16.72" density="25.88" laneDensity="8.63" occupancy="4.16" waitingTime="0.00" timeLoss="6.65" speed="11.45" speedRelative="0.82" departed="0" arrived="2" entered="5" left="0" laneChangedFrom="0" laneChangedTo="0"/>
        <edge id="t_w" sampledSeconds="20.12" traveltime="14.37" overlapTraveltime="14.73" density="10.79" laneDensity="3.60" occupancy="1.75" waitingTime="0.00" timeLoss="1.89" speed="12.99" speedRelative="0.94" departed="0" arrived="1" entered="1" left="0" laneChangedFrom="0" laneChangedTo="0"/>
        <edge id="w_t" sampledSeconds="111.23" traveltime="25.03" overlapTraveltime="25.98" density="59.67" laneDensity="19.89" occupancy="9.79" waitingTime="27.00" timeLoss="49.13" speed="7.37" speedRelative="0.53" departed="3" arrived="0" entered="0" left="4" laneChangedFrom="0" laneChangedTo="0"/>
    </interval>
    <interval begin="40.00" end="50.00" id="1">
        <edge id="e_t" sampledSeconds="111.10" traveltime="29.10" overlapTraveltime="30.07" density="59.60" laneDensity="19.87" occupancy="9.80" waitingTime="41.00" timeLoss="54.75" speed="6.37" speedRelative="0.46" departed="3" arrived="0" entered="0" left="3" laneChangedFrom="0" laneChangedTo="0"/>
        <edge id="n_t" sampledSeconds="122.34" traveltime="33.36" overlapTraveltime="34.30" density="65.63" laneDensity="21.88" occupancy="10.88" waitingTime="57.00" timeLoss="67.71" speed="5.58" speedRelative="0.40" departed="3" arrived="0" entered="0" left="1" laneChangedFrom="0" laneChangedTo="0"/>
        <edge id="s_t" sampledSeconds="122.04" traveltime="31.79" overlapTraveltime="32.69" density="65.47" laneDensity="21.82" occupancy="10.87" waitingTime="62.00" timeLoss="73.17" speed="5.85" speedRelative="0.42" departed="3" arrived="0" entered="0" left="1" laneChangedFrom="0" laneChangedTo="0"/>
        <edge id="t_e" sampledSeconds="31.25" traveltime="15.91" overlapTraveltime="16.32" density="16.76" laneDensity="5.59" occupancy="2.76" waitingTime="0.00" timeLoss="2.70" speed="11.73" speedRelative="0.84" departed="0" arrived="1" entered="1" left="0" laneChangedFrom="0" laneChangedTo="0"/>
        <edge id="t_n" sampledSeconds="59.93" traveltime="15.04" overlapTraveltime="15.39" density="32.15" laneDensity="10.72" occupancy="5.19" waitingTime="0.00" timeLoss="8.66" speed="12.43" speedRelative="0.90" departed="0" arrived="3" entered="5" left="0" laneChangedFrom="0" laneChangedTo="0"/>
        <edge id="t_s" sampledSeconds="73.82" traveltime="16.34" overlapTraveltime="16.77" density="39.61" laneDensity="13.20" occupancy="6.44" waitingTime="0.00" timeLoss="9.69" speed="11.41" speedRelative="0.82" departed="0" arrived="2" entered="4" left="0" laneChangedFrom="1" laneChangedTo="1"/>
        <edge id="t_w" sampledSeconds="16.93" traveltime="17.17" overlapTraveltime="17.48" density="9.08" laneDensity="3.03" occupancy="1.41" waitingTime="0.00" timeLoss="3.01" speed="10.95" speedRelative="0.79" departed="0" arrived="2" entered="2" left="0" laneChangedFrom="0" laneChangedTo="0"/>
        <edge id="w_t" sampledSeconds="98.18" traveltime="24.62" overlapTraveltime="25.58" density="52.67" laneDensity="17.56" occupancy="8.59" waitingTime="30.00" timeLoss="42.77" speed="7.48" speedRelative="0.54" departed="3" arrived="0" entered="0" left="5" laneChangedFrom="0" laneChangedTo="0"/>
    </interval>
    <interval begin="50.00" end="60.00" id="1">
        <edge id="e_t" sampledSeconds="111.71" traveltime="23.63" overlapTraveltime="24.27" density="59.93" laneDensity="19.98" occupancy="9.82" waitingTime="19.00" timeLoss="47.81" speed="7.88" speedRelative="0.57" departed="6" arrived="0" entered="0" left="6" laneChangedFrom="0" laneChangedTo="0"/>
        <edge id="n_t" sampledSeconds="149.87" traveltime="39.89" overlapTraveltime="40.90" density="80.40" laneDensity="26.80" occupancy="13.36" waitingTime="85.00" timeLoss="97.90" speed="4.68" speedRelative="0.34" departed="6" arrived="0" entered="0" left="1" laneChangedFrom="0" laneChangedTo="0"/>
        <edge id="s_t" sampledSeconds="146.64" traveltime="46.50" overlapTraveltime="47.46" density="78.67" laneDensity="26.22" occupancy="13.04" waitingTime="96.00" timeLoss="104.08" speed="4.03" speedRelative="0.29" departed="6" arrived="0" entered="0" left="2" laneChangedFrom="0" laneChangedTo="0"/>
        <edge id="t_e" sampledSeconds="46.00" traveltime="15.68" overlapTraveltime="16.12" density="24.68" laneDensity="8.23" occupancy="3.95" waitingTime="0.00" timeLoss="4.77" speed="11.87" speedRelative="0.85" departed="0" arrived="2" entered="7" left="0" laneChangedFrom="0" laneChangedTo="0"/>
        <edge id="t_n" sampledSeconds="54.95" traveltime="16.15" overlapTraveltime="16.52" density="29.48" laneDensity="9.83" occupancy="4.82" waitingTime="0.00" timeLoss="9.20" speed="11.58" speedRelative="0.83" departed="0" arrived="4" entered="1" left="0" laneChangedFrom="0" laneChangedTo="0"/>
        <edge id="t_s" sampledSeconds="49.42" traveltime="17.15" overlapTraveltime="17.55" density="26.51" laneDensity="8.84" occupancy="4.31" waitingTime="0.00" timeLoss="5.04" speed="10.91" speedRelative="0.79" departed="0" arrived="5" entered="1" left="0" laneChangedFrom="0" laneChangedTo="0"/>
        <edge id="t_w" sampledSeconds="44.75" traveltime="17.39" overlapTraveltime="17.84" density="24.01" laneDensity="8.00" occupancy="3.85" waitingTime="0.00" timeLoss="6.29" speed="10.73" speedRelative="0.77" departed="0" arrived="1" entered="6" left="0" laneChangedFrom="0" laneChangedTo="0"/>
        <edge id="w_t" sampledSeconds="90.65" traveltime="19.22" overlapTraveltime="19.95" density="48.63" laneDensity="16.21" occupancy="7.91" waitingTime="8.00" timeLoss="29.50" speed="9.59" speedRelative="0.69" departed="6" arrived="0" entered="0" left="7" laneChangedFrom="0" laneChangedTo="0"/>
    </interval>
    <interval begin="60.00" end="70.00" id="1">
        <edge id="e_t" sampledSeconds="100.80" traveltime="23.94" overlapTraveltime="24.64" density="54.08" laneDensity="18.03" occupancy="8.92" waitingTime="35.00" timeLoss="43.70" speed="7.77" speedRelative="0.56" departed="3" arrived="0" entered="0" left="3" laneChangedFrom="0" laneChangedTo="0"/>
        <edge id="n_t" sampledSeconds="179.82" traveltime="47.17" overlapTraveltime="48.30" density="96.47" laneDensity="32.16" occupancy="15.94" waitingTime="115.00" timeLoss="128.72" speed="3.96" speedRelative="0.29" departed="3" arrived="0" entered="0" left="3" laneChangedFrom="0" laneChangedTo="0"/>
        <edge id="s_t" sampledSeconds="179.25" traveltime="48.58" overlapTraveltime="49.84" density="96.16" laneDensity="32.05" occupancy="15.93" waitingTime="112.00" timeLoss="128.28" speed="3.84" speedRelative="0.28" departed="3" arrived="0" entered="0" left="2" laneChangedFrom="0" laneChangedTo="0"/>
        <edge id="t_e" sampledSeconds="80.83" traveltime="15.01" overlapTraveltime="15.40" density="43.36" laneDensity="14.45" occupancy="7.07" waitingTime="0.00" timeLoss="9.91" speed="12.43" speedRelative="0.89" departed="0" arrived="4" entered="3" left="0" laneChangedFrom="0" laneChangedTo="0"/>
        <edge id="t_n" sampledSeconds="25.82" traveltime="17.47" overlapTraveltime="17.79" density="13.85" laneDensity="4.62" occupancy="2.20" waitingTime="0.00" timeLoss="3.79" speed="10.76" speedRelative="0.77" departed="0" arrived="2" entered="2" left="0" laneChangedFrom="0" laneChangedTo="0"/>
        <edge id="t_s" sampledSeconds="33.18" traveltime="16.78" overlapTraveltime="17.23" density="17.80" laneDensity="5.93" occupancy="2.84" waitingTime="0.00" timeLoss="4.87" speed="11.11" speedRelative="0.80" departed="0" arrived="3" entered="2" left="0" laneChangedFrom="0" laneChangedTo="0"/>
        <edge id="t_w" sampledSeconds="89.03" traveltime="16.43" overlapTraveltime="16.86" density="47.76" laneDensity="15.92" occupancy="7.80" waitingTime="0.00" timeLoss="13.63" speed="11.35" speedRelative="0.82" departed="0" arrived="2" entered="4" left="0" laneChangedFrom="1" laneChangedTo="1"/>
        <edge id="w_t" sampledSeconds="81.94" traveltime="19.92" overlapTraveltime="20.44" density="43.96" laneDensity="14.65" occupancy="7.27" waitingTime="24.00" timeLoss="29.80" speed="9.36" speedRelative="0.67" departed="3" arrived="0" entered="0" left="2" laneChangedFrom="0" laneChangedTo="0"/>
    </interval>
    <interval begin="70.00" end="80.00" id="1">
        <edge id="e_t" sampledSeconds="123.85" traveltime="33.61" overlapTraveltime="34.46" density="66.45" laneDensity="22.15" occupancy="11.04" waitingTime="62.00" timeLoss="75.25" speed="5.55" speedRelative="0.40" departed="3" arrived="0" entered="0" left="1" laneChangedFrom="0" laneChangedTo="0"/>
        <edge id="n_t" sampledSeconds="172.45" traveltime="46.26" overlapTraveltime="46.51" density="92.52" laneDensity="30.84" occupancy="15.26" waitingTime="93.00" timeLoss="121.60" speed="4.12" speedRelative="0.30" departed="3" arrived="0" entered="0" left="6" laneChangedFrom="0" laneChangedTo="0"/>
        <edge id="s_t" sampledSeconds="177.42" traveltime="43.35" overlapTraveltime="43.82" density="95.18" laneDensity="31.73" occupancy="15.71" waitingTime="95.00" timeLoss="121.84" speed="4.37" speedRelative="0.31" departed="3" arrived="0" entered="0" left="6" laneChangedFrom="0" laneChangedTo="0"/>
        <edge id="t_e" sampledSeconds="47.22" traveltime="15.82" overlapTraveltime="16.13" density="25.33" laneDensity="8.44" occupancy="4.12" waitingTime="0.00" timeLoss="8.05" speed="11.87" speedRelative="0.85" departed="0" arrived="6" entered="1" left="0" laneChangedFrom="0" laneChangedTo="0"/>
        <edge id="t_n" sampledSeconds="50.13" traveltime="15.34" overlapTraveltime="15.76" density="26.89" laneDensity="8.96" occupancy="4.35" waitingTime="0.00" timeLoss="5.92" speed="12.15" speedRelative="0.87" departed="0" arrived="2" entered="6" left="0" laneChangedFrom="0" laneChangedTo="0"/>
        <edge id="t_s" sampledSeconds="43.98" traveltime="14.61" overlapTraveltime="14.99" density="23.59" laneDensity="7.86" occupancy="3.77" waitingTime="0.00" timeLoss="4.34" speed="12.76" speedRelative="0.92" departed="0" arrived="2" entered="7" left="0" laneChangedFrom="0" laneChangedTo="0"/>
        <edge id="t_w" sampledSeconds="60.16" traveltime="15.22" overlapTraveltime="15.60" density="32.27" laneDensity="10.76" occupancy="5.25" waitingTime="0.00" timeLoss="8.02" speed="12.27" speedRelative="0.88" departed="0" arrived="8" entered="1" left="0" laneChangedFrom="0" laneChangedTo="0"/>
        <edge id="w_t" sampledSeconds="102.70" traveltime="27.45" overlapTraveltime="28.21" density="55.10" laneDensity="18.37" occupancy="9.11" waitingTime="41.00" timeLoss="55.48" speed="6.79" speedRelative="0.49" departed="3" arrived="0" entered="0" left="2" laneChangedFrom="0" laneChangedTo="0"/>
    </interval>
    <interval begin="80.00" end="90.00" id="1">
        <edge id="e_t" sampledSeconds="149.82" traveltime="43.72" overlapTraveltime="44.67" density="80.38" laneDensity="26.79" occupancy="13.32" waitingTime="96.00" timeLoss="104.40" speed="4.28" speedRelative="0.31" departed="6" arrived="0" entered="0" left="2" laneChangedFrom="0" laneChangedTo="0"/>
        <edge id="n_t" sampledSeconds="162.26" traveltime="41.00" overlapTraveltime="41.89" density="87.05" laneDensity="29.02" occupancy="14.30" waitingTime="77.00" timeLoss="108.65" speed="4.57" speedRelative="0.33" departed="6" arrived="0" entered="0" left="5" laneChangedFrom="0" laneChangedTo="0"/>
        <edge id="s_t" sampledSeconds="162.56" traveltime="43.17" overlapTraveltime="43.92" density="87.21" laneDensity="29.07" occupancy="14.33" waitingTime="80.00" timeLoss="109.97" speed="4.36" speedRelative="0.31" departed="6" arrived="0" entered="0" left="5" laneChangedFrom="0" laneChangedTo="0"/>
        <edge id="t_e" sampledSeconds="28.97" traveltime="16.38" overlapTraveltime="16.81" density="15.54" laneDensity="5.18" occupancy="2.45" waitingTime="0.00" timeLoss="3.81" speed="11.39" speedRelative="0.82" departed="0" arrived="1" entered="4" left="0" laneChangedFrom="0" laneChangedTo="0"/>
        <edge id="t_n" sampledSeconds="77.26" traveltime="15.44" overlapTraveltime="15.84" density="41.45" laneDensity="13.82" occupancy="6.78" waitingTime="0.00" timeLoss="11.96" speed="12.09" speedRelative="0.87" departed="0" arrived="4" entered="3" left="0" laneChangedFrom="0" laneChangedTo="0"/>
        <edge id="t_s" sampledSeconds="74.78" traveltime="15.72" overlapTraveltime="16.09" density="40.12" laneDensity="13.37" occupancy="6.57" waitingTime="0.00" timeLoss="11.62" speed="11.89" speedRelative="0.86" departed="0" arrived="3" entered="2" left="0" laneChangedFrom="0" laneChangedTo="0"/>
        <edge id="t_w" sampledSeconds="24.14" traveltime="14.50" overlapTraveltime="14.86" density="12.95" laneDensity="4.32" occupancy="2.02" waitingTime="0.00" timeLoss="2.77" speed="12.88" speedRelative="0.93" departed="0" arrived="2" entered="4" left="0" laneChangedFrom="0" laneChangedTo="0"/>
        <edge id="w_t" sampledSeconds="129.95" traveltime="37.77" overlapTraveltime="38.74" density="69.71" laneDensity="23.24" occupancy="11.58" waitingTime="73.00" timeLoss="83.59" speed="4.94" speedRelative="0.36" departed="6" arrived="0" entered="0" left="1" laneChangedFrom="0" laneChangedTo="0"/>
    </interval>
    <interval begin="90.00" end="100.00" id="1">
        <edge id="e_t" sampledSeconds="179.98" traveltime="51.51" overlapTraveltime="52.72" density="96.55" laneDensity="32.18" occupancy="16.01" waitingTime="117.00" timeLoss="132.74" speed="3.63" speedRelative="0.26" departed="3" arrived="0" entered="0" left="2" laneChangedFrom="0" laneChangedTo="0"/>
        <edge id="n_t" sampledSeconds="154.78" traveltime="33.73" overlapTraveltime="34.54" density="83.03" laneDensity="27.68" occupancy="13.74" waitingTime="33.00" timeLoss="90.98" speed="5.54" speedRelative="0.40" departed="3" arrived="0" entered="0" left="3" laneChangedFrom="0" laneChangedTo="0"/>
        <edge id="s_t" sampledSeconds="157.56" traveltime="35.18" overlapTraveltime="36.00" density="84.53" laneDensity="28.18" occupancy="13.99" waitingTime="40.00" timeLoss="93.57" speed="5.32" speedRelative="0.38" departed="3" arrived="0" entered="0" left="3" laneChangedFrom="0" laneChangedTo="0"/>
        <edge id="t_e" sampledSeconds="61.66" traveltime="14.79" overlapTraveltime="15.20" density="33.08" laneDensity="11.03" occupancy="5.38" waitingTime="0.00" timeLoss="5.09" speed="12.59" speedRelative="0.91" departed="0" arrived="2" entered="4" left="0" laneChangedFrom="0" laneChangedTo="0"/>
        <edge id="t_n" sampledSeconds="37.87" traveltime="13.88" overlapTraveltime="14.21" density="20.32" laneDensity="6.77" occupancy="3.31" waitingTime="0.00" timeLoss="3.03" speed="13.47" speedRelative="0.97" departed="0" arrived="6" entered="1" left="0" laneChangedFrom="0" laneChangedTo="0"/>
        <edge id="t_s" sampledSeconds="43.52" traveltime="15.17" overlapTraveltime="15.53" density="23.35" laneDensity="7.78" occupancy="3.80" waitingTime="0.00" timeLoss="6.38" speed="12.32" speedRelative="0.89" departed="0" arrived="6" entered="1" left="0" laneChangedFrom="0" laneChangedTo="0"/>
        <edge id="t_w" sampledSeconds="61.98" traveltime="14.34" overlapTraveltime="14.72" density="33.25" laneDensity="11.08" occupancy="5.43" waitingTime="0.00" timeLoss="6.18" speed="13.00" speedRelative="0.94" departed="0" arrived="1" entered="4" left="0" laneChangedFrom="0" laneChangedTo="0"/>
        <edge id="w_t" sampledSeconds="159.24" traveltime="44.51" overlapTraveltime="45.71" density="85.43" laneDensity="28.48" occupancy="14.14" waitingTime="92.00" timeLoss="110.45" speed="4.19" speedRelative="0.30" departed="3" arrived="0" entered="0" left="2" laneChangedFrom="0" laneChangedTo="0"/>
    </interval>
    <interval begin="100.00" end="110.00" id="1">
        <edge id="e_t" sampledSeconds="177.76" traveltime="42.76" overlapTraveltime="43.05" density="95.36" laneDensity="31.79" occupancy="15.70" waitingTime="96.00" timeLoss="120.65" speed="4.45" speedRelative="0.32" departed="6" arrived="0" entered="0" left="7" laneChangedFrom="0" laneChangedTo="0"/>
        <edge id="n_t" sampledSeconds="178.91" traveltime="49.30" overlapTraveltime="50.46" density="95.98" laneDensity="31.99" occupancy="15.96" waitingTime="86.00" timeLoss="127.04" speed="3.79" speedRelative="0.27" departed="6" arrived="0" entered="0" left="1" laneChangedFrom="0" laneChangedTo="0"/>
        <edge id="s_t" sampledSeconds="181.04" traveltime="44.70" overlapTraveltime="45.78" density="97.12" laneDensity="32.37" occupancy="16.12" waitingTime="87.00" timeLoss="122.77" speed="4.18" speedRelative="0.30" departed="6" arrived="0" entered="0" left="2" laneChangedFrom="0" laneChangedTo="0"/>
        <edge id="t_e" sampledSeconds="69.75" traveltime="14.88" overlapTraveltime="15.26" density="37.42" laneDensity="12.47" occupancy="6.06" waitingTime="0.00" timeLoss="5.15" speed="12.54" speedRelative="0.90" departed="0" arrived="5" entered="6" left="0" laneChangedFrom="0" laneChangedTo="0"/>
        <edge id="t_n" sampledSeconds="16.98" traveltime="15.59" overlapTraveltime="16.00" density="9.11" laneDensity="3.04" occupancy="1.46" waitingTime="0.00" timeLoss="2.09" speed="11.96" speedRelative="0.86" departed="0" arrived="0" entered="2" left="0" laneChangedFrom="0" laneChangedTo="0"/>
        <edge id="t_s" sampledSeconds="15.87" traveltime="14.54" overlapTraveltime="14.87" density="8.51" laneDensity="2.84" occupancy="1.35" waitingTime="0.00" timeLoss="1.61" speed="12.87" speedRelative="0.93" departed="0" arrived="2" entered="1" left="0" laneChangedFrom="0" laneChangedTo="0"/>
        <edge id="t_w" sampledSeconds="66.32" traveltime="15.04" overlapTraveltime="15.40" density="35.58" laneDensity="11.86" occupancy="5.75" waitingTime="0.00" timeLoss="7.16" speed="12.43" speedRelative="0.89" departed="0" arrived="5" entered="6" left="0" laneChangedFrom="0" laneChangedTo="0"/>
        <edge id="w_t" sampledSeconds="160.30" traveltime="39.20" overlapTraveltime="39.68" density="86.00" laneDensity="28.67" occupancy="14.15" waitingTime="83.00" timeLoss="102.74" speed="4.82" speedRelative="0.35" departed="6" arrived="0" entered="0" left="6" laneChangedFrom="0" laneChangedTo="0"/>
    </interval>
    <interval begin="110.00" end="120.00" id="1">
        <edge id="e_t" sampledSeconds="174.38" traveltime="54.70" overlapTraveltime="55.92" density="93.55" laneDensity="31.18" occupancy="15.56" waitingTime="115.00" timeLoss="129.35" speed="3.42" speedRelative="0.25" departed="3" arrived="0" entered="0" left="1" laneChangedFrom="0" laneChangedTo="0"/>
        <edge id="n_t" sampledSeconds="202.74" traveltime="54.38" overlapTraveltime="55.23" density="108.77" laneDensity="36.26" occupancy="17.91" waitingTime="121.00" timeLoss="149.42" speed="3.47" speedRelative="0.25" departed="3" arrived="0" entered="0" left="5" laneChangedFrom="0" laneChangedTo="0"/>
        <edge id="s_t" sampledSeconds="193.83" traveltime="54.54" overlapTraveltime="55.30" density="103.99" laneDensity="34.66" occupancy="17.17" waitingTime="116.00" timeLoss="144.42" speed="3.46" speedRelative="0.25" departed="3" arrived="0" entered="0" left="4" laneChangedFrom="0" laneChangedTo="0"/>
        <edge id="t_e" sampledSeconds="83.02" traveltime="14.77" overlapTraveltime="15.16" density="44.54" laneDensity="14.85" occupancy="7.31" waitingTime="0.00" timeLoss="7.41" speed="12.62" speedRelative="0.91" departed="0" arrived="4" entered="3" left="0" laneChangedFrom="0" laneChangedTo="0"/>
        <edge id="t_n" sampledSeconds="30.89" traveltime="14.40" overlapTraveltime="14.78" density="16.57" laneDensity="5.52" occupancy="2.68" waitingTime="0.00" timeLoss="3.42" speed="12.95" speedRelative="0.93" departed="0" arrived="1" entered="3" left="0" laneChangedFrom="0" laneChangedTo="0"/>
        <edge id="t_s" sampledSeconds="23.28" traveltime="16.91" overlapTraveltime="17.36" density="12.49" laneDensity="4.16" occupancy="1.97" waitingTime="0.00" timeLoss="3.53" speed="11.03" speedRelative="0.79" departed="0" arrived="0" entered="4" left="0" laneChangedFrom="0" laneChangedTo="0"/>
        <edge id="t_w" sampledSeconds="71.68" traveltime="16.19" overlapTraveltime="16.59" density="38.45" laneDensity="12.82" occupancy="6.26" waitingTime="0.00" timeLoss="9.22" speed="11.54" speedRelative="0.83" departed="0" arrived="4" entered="3" left="0" laneChangedFrom="0" laneChangedTo="0"/>