<?xml version="1.0" encoding="UTF-8"?>

<!-- generated on 2024-05-18 15:16:20 by Eclipse SUMO libsumo Version 1.19.0
<configuration xmlns:xsi="http://www.w3.org/2001/XMLSchema-instance" xsi:noNamespaceSchemaLocation="http://sumo.dlr.de/xsd/libsumoConfiguration.xsd">

    <input>
        <net-file value="nets/syc/1x1/Equal_entries_500/syc_4phases.net.xml"/>
        <route-files value="nets/syc/1x1/Equal_entries_500/equal_entries_500.rou.xml"/>
        <additional-files value="nets/syc/1x1/Equal_entries_500/1x1_outputs.add.xml"/>
    </input>

    <output>
        <fcd-output value="nets/syc/1x1/Equal_entries_500/output/fcd_output.xml"/>
        <tripinfo-output value="nets/syc/1x1/Equal_entries_500/output/tripinfo.out.xml"/>
    </output>

    <time>
        <begin value="0"/>
        <end value="1000"/>
    </time>

    <processing>
        <time-to-teleport value="-1"/>
        <waiting-time-memory value="1000"/>
        <max-depart-delay value="-1"/>
    </processing>

    <random_number>
        <seed value="0"/>
    </random_number>

</configuration>
-->

<tripinfos xmlns:xsi="http://www.w3.org/2001/XMLSchema-instance" xsi:noNamespaceSchemaLocation="http://sumo.dlr.de/xsd/tripinfo_file.xsd">
    <tripinfo id="flow_se.0" depart="0.00" departLane="s_t_0" departPos="5.10" departSpeed="16.05" departDelay="0.00" arrival="27.00" arrivalLane="t_e_0" arrivalPos="186.40" arrivalSpeed="15.66" duration="27.00" routeLength="376.73" waitingTime="0.00" waitingCount="0" stopTime="0.00" timeLoss="2.84" rerouteNo="0" devices="tripinfo_flow_se.0 fcd_flow_se.0" vType="DEFAULT_VEHTYPE" speedFactor="1.16" vaporized=""/>
    <tripinfo id="flow_we.0" depart="0.00" departLane="w_t_1" departPos="5.10" departSpeed="15.63" departDelay="0.00" arrival="27.00" arrivalLane="t_e_1" arrivalPos="186.40" arrivalSpeed="15.28" duration="27.00" routeLength="394.90" waitingTime="0.00" waitingCount="0" stopTime="0.00" timeLoss="1.09" rerouteNo="0" devices="tripinfo_flow_we.0 fcd_flow_we.0" vType="DEFAULT_VEHTYPE" speedFactor="1.13" vaporized=""/>
    <tripinfo id="flow_nw.0" depart="0.00" departLane="n_t_0" departPos="5.10" departSpeed="14.56" departDelay="0.00" arrival="30.00" arrivalLane="t_w_0" arrivalPos="186.40" arrivalSpeed="14.03" duration="30.00" routeLength="376.73" waitingTime="0.00" waitingCount="0" stopTime="0.00" timeLoss="2.94" rerouteNo="0" devices="tripinfo_flow_nw.0 fcd_flow_nw.0" vType="DEFAULT_VEHTYPE" speedFactor="1.05" vaporized=""/>
    <tripinfo id="flow_en.0" depart="0.00" departLane="e_t_0" departPos="5.10" departSpeed="13.13" departDelay="0.00" arrival="33.00" arrivalLane="t_n_0" arrivalPos="186.40" arrivalSpeed="11.96" duration="33.00" routeLength="376.73" waitingTime="0.00" waitingCount="0" stopTime="0.00" timeLoss="3.53" rerouteNo="0" devices="tripinfo_flow_en.0 fcd_flow_en.0" vType="DEFAULT_VEHTYPE" speedFactor="0.95" vaporized=""/>
    <tripinfo id="flow_ws.0" depart="0.00" departLane="w_t_0" departPos="5.10" departSpeed="13.13" departDelay="0.00" arrival="33.00" arrivalLane="t_s_0" arrivalPos="186.40" arrivalSpeed="12.60" duration="33.00" routeLength="376.73" waitingTime="0.00" waitingCount="0" stopTime="0.00" timeLoss="3.47" rerouteNo="0" devices="tripinfo_flow_ws.0 fcd_flow_ws.0" vType="DEFAULT_VEHTYPE" speedFactor="0.95" vaporized=""/>
    <tripinfo id="flow_ns.0" depart="0.00" departLane="n_t_1" departPos="5.10" departSpeed="15.51" departDelay="0.00" arrival="34.00" arrivalLane="t_s_1" arrivalPos="186.40" arrivalSpeed="15.25" duration="34.00" routeLength="394.90" waitingTime="1.00" waitingCount="1" stopTime="0.00" timeLoss="8.54" rerouteNo="0" devices="tripinfo_flow_ns.0 fcd_flow_ns.0" vType="DEFAULT_VEHTYPE" speedFactor="1.12" vaporized=""/>
    <tripinfo id="flow_sn.0" depart="0.00" departLane="s_t_1" departPos="5.10" departSpeed="12.27" departDelay="0.00" arrival="35.00" arrivalLane="t_n_1" arrivalPos="186.40" arrivalSpeed="11.48" duration="35.00" routeLength="394.90" waitingTime="0.00" waitingCount="0" stopTime="0.00" timeLoss="2.74" rerouteNo="0" devices="tripinfo_flow_sn.0 fcd_flow_sn.0" vType="DEFAULT_VEHTYPE" speedFactor="0.88" vaporized=""/>
    <tripinfo id="flow_sn.1" depart="8.00" departLane="s_t_1" departPos="5.10" departSpeed="14.68" departDelay="0.80" arrival="37.00" arrivalLane="t_n_1" arrivalPos="186.40" arrivalSpeed="13.77" duration="29.00" routeLength="394.90" waitingTime="0.00" waitingCount="0" stopTime="0.00" timeLoss="1.63" rerouteNo="0" devices="tripinfo_flow_sn.1 fcd_flow_sn.1" vType="DEFAULT_VEHTYPE" speedFactor="1.06" vaporized=""/>
    <tripinfo id="flow_en.1" depart="8.00" departLane="e_t_0" departPos="5.10" departSpeed="15.38" departDelay="0.80" arrival="37.00" arrivalLane="t_n_0" arrivalPos="186.40" arrivalSpeed="14.68" duration="29.00" routeLength="376.73" waitingTime="0.00" waitingCount="0" stopTime="0.00" timeLoss="3.39" rerouteNo="0" devices="tripinfo_flow_en.1 fcd_flow_en.1" vType="DEFAULT_VEHTYPE" speedFactor="1.11" vaporized=""/>
    <tripinfo id="flow_nw.1" depart="8.00" departLane="n_t_0" departPos="5.10" departSpeed="13.70" departDelay="0.80" arrival="40.00" arrivalLane="t_w_0" arrivalPos="186.40" arrivalSpeed="13.39" duration="32.00" routeLength="376.73" waitingTime="0.00" waitingCount="0" stopTime="0.00" timeLoss="3.48" rerouteNo="0" devices="tripinfo_flow_nw.1 fcd_flow_nw.1" vType="DEFAULT_VEHTYPE" speedFactor="0.99" vaporized=""/>
    <tripinfo id="flow_ns.1" depart="8.00" departLane="n_t_1" departPos="5.10" departSpeed="12.94" departDelay="0.80" arrival="41.00" arrivalLane="t_s_1" arrivalPos="186.40" arrivalSpeed="12.25" duration="33.00" routeLength="394.90" waitingTime="0.00" waitingCount="0" stopTime="0.00" timeLoss="1.83" rerouteNo="0" devices="tripinfo_flow_ns.1 fcd_flow_ns.1" vType="DEFAULT_VEHTYPE" speedFactor="0.93" vaporized=""/>
    <tripinfo id="flow_en.2" depart="15.00" departLane="e_t_0" departPos="5.10" departSpeed="16.00" departDelay="0.60" arrival="43.00" arrivalLane="t_n_0" arrivalPos="186.40" arrivalSpeed="15.33" duration="28.00" routeLength="376.73" waitingTime="0.00" waitingCount="0" stopTime="0.00" timeLoss="3.20" rerouteNo="0" devices="tripinfo_flow_en.2 fcd_flow_en.2" vType="DEFAULT_VEHTYPE" speedFactor="1.15" vaporized=""/>
    <tripinfo id="flow_nw.2" depart="15.00" departLane="n_t_0" departPos="5.10" departSpeed="15.08" departDelay="0.60" arrival="44.00" arrivalLane="t_w_0" arrivalPos="186.40" arrivalSpeed="14.85" duration="29.00" routeLength="376.73" waitingTime="0.00" waitingCount="0" stopTime="0.00" timeLoss="3.08" rerouteNo="0" devices="tripinfo_flow_nw.2 fcd_flow_nw.2" vType="DEFAULT_VEHTYPE" speedFactor="1.09" vaporized=""/>
    <tripinfo id="flow_sn.2" depart="15.00" departLane="s_t_1" departPos="5.10" departSpeed="14.38" departDelay="0.60" arrival="44.00" arrivalLane="t_n_1" arrivalPos="186.40" arrivalSpeed="13.70" duration="29.00" routeLength="394.90" waitingTime="0.00" waitingCount="0" stopTime="0.00" timeLoss="1.30" rerouteNo="0" devices="tripinfo_flow_sn.2 fcd_flow_sn.2" vType="DEFAULT_VEHTYPE" speedFactor="1.03" vaporized=""/>
    <tripinfo id="flow_ns.2" depart="15.00" departLane="n_t_1" departPos="5.10" departSpeed="13.07" departDelay="0.60" arrival="47.00" arrivalLane="t_s_1" arrivalPos="186.40" arrivalSpeed="12.51" duration="32.00" routeLength="394.90" waitingTime="0.00" waitingCount="0" stopTime="0.00" timeLoss="1.46" rerouteNo="0" devices="tripinfo_flow_ns.2 fcd_flow_ns.2" vType="DEFAULT_VEHTYPE" speedFactor="0.94" vaporized=""/>
    <tripinfo id="flow_wn.0" depart="0.00" departLane="w_t_2" departPos="5.10" departSpeed="17.61" departDelay="0.00" arrival="48.00" arrivalLane="t_n_2" arrivalPos="186.40" arrivalSpeed="16.75" duration="48.00" routeLength="392.21" waitingTime="18.00" waitingCount="1" stopTime="0.00" timeLoss="24.51" rerouteNo="0" devices="tripinfo_flow_wn.0 fcd_flow_wn.0" vType="DEFAULT_VEHTYPE" speedFactor="1.27" vaporized=""/>
    <tripinfo id="flow_se.2" depart="15.00" departLane="s_t_0" departPos="5.10" departSpeed="14.63" departDelay="0.60" arrival="48.00" arrivalLane="t_e_1" arrivalPos="186.40" arrivalSpeed="14.49" duration="33.00" routeLength="376.73" waitingTime="0.00" waitingCount="0" stopTime="0.00" timeLoss="6.73" rerouteNo="0" devices="tripinfo_flow_se.2 fcd_flow_se.2" vType="DEFAULT_VEHTYPE" speedFactor="1.05" vaporized=""/>
    <tripinfo id="flow_es.0" depart="0.00" departLane="e_t_2" departPos="5.10" departSpeed="14.64" departDelay="0.00" arrival="50.00" arrivalLane="t_s_2" arrivalPos="186.40" arrivalSpeed="13.59" duration="50.00" routeLength="392.21" waitingTime="15.00" waitingCount="1" stopTime="0.00" timeLoss="21.83" rerouteNo="0" devices="tripinfo_flow_es.0 fcd_flow_es.0" vType="DEFAULT_VEHTYPE" speedFactor="1.05" vaporized=""/>
    <tripinfo id="flow_ws.1" depart="8.00" departLane="w_t_0" departPos="5.10" departSpeed="10.41" departDelay="0.80" arrival="50.00" arrivalLane="t_s_0" arrivalPos="186.40" arrivalSpeed="9.84" duration="42.00" routeLength="376.73" waitingTime="0.00" waitingCount="0" stopTime="0.00" timeLoss="4.16" rerouteNo="0" devices="tripinfo_flow_ws.1 fcd_flow_ws.1" vType="DEFAULT_VEHTYPE" speedFactor="0.75" vaporized=""/>
    <tripinfo id="flow_es.1" depart="8.00" departLane="e_t_2" departPos="5.10" departSpeed="16.43" departDelay="0.80" arrival="51.00" arrivalLane="t_s_2" arrivalPos="186.40" arrivalSpeed="15.05" duration="43.00" routeLength="392.21" waitingTime="10.00" waitingCount="1" stopTime="0.00" timeLoss="18.46" rerouteNo="0" devices="tripinfo_flow_es.1 fcd_flow_es.1" vType="DEFAULT_VEHTYPE" speedFactor="1.18" vaporized=""/>
    <tripinfo id="flow_ws.2" depart="15.00" departLane="w_t_0" departPos="5.10" departSpeed="15.71" departDelay="0.60" arrival="51.00" arrivalLane="t_s_1" arrivalPos="186.40" arrivalSpeed="11.82" duration="36.00" routeLength="376.73" waitingTime="0.00" waitingCount="0" stopTime="0.00" timeLoss="11.18" rerouteNo="0" devices="tripinfo_flow_ws.2 fcd_flow_ws.2" vType="DEFAULT_VEHTYPE" speedFactor="1.13" vaporized=""/>
    <tripinfo id="flow_se.1" depart="8.00" departLane="s_t_0" departPos="5.10" departSpeed="10.06" departDelay="0.80" arrival="52.00" arrivalLane="t_e_0" arrivalPos="186.40" arrivalSpeed="9.84" duration="44.00" routeLength="376.73" waitingTime="0.00" waitingCount="0" stopTime="0.00" timeLoss="4.23" rerouteNo="0" devices="tripinfo_flow_se.1 fcd_flow_se.1" vType="DEFAULT_VEHTYPE" speedFactor="0.72" vaporized=""/>
    <tripinfo id="flow_se.3" depart="22.00" departLane="s_t_0" departPos="5.10" departSpeed="14.00" departDelay="0.40" arrival="53.00" arrivalLane="t_e_0" arrivalPos="186.40" arrivalSpeed="13.02" duration="31.00" routeLength="376.73" waitingTime="0.00" waitingCount="0" stopTime="0.00" timeLoss="3.58" rerouteNo="0" devices="tripinfo_flow_se.3 fcd_flow_se.3" vType="DEFAULT_VEHTYPE" speedFactor="1.01" vaporized=""/>
    <tripinfo id="flow_wn.1" depart="8.00" departLane="w_t_2" departPos="5.10" departSpeed="12.30" departDelay="0.80" arrival="55.00" arrivalLane="t_n_2" arrivalPos="186.40" arrivalSpeed="11.46" duration="47.00" routeLength="392.21" waitingTime="6.00" waitingCount="1" stopTime="0.00" timeLoss="14.12" rerouteNo="0" devices="tripinfo_flow_wn.1 fcd_flow_wn.1" vType="DEFAULT_VEHTYPE" speedFactor="0.89" vaporized=""/>
    <tripinfo id="flow_wn.2" depart="15.00" departLane="w_t_2" departPos="5.10" departSpeed="13.70" departDelay="0.60" arrival="57.00" arrivalLane="t_n_2" arrivalPos="186.40" arrivalSpeed="13.38" duration="42.00" routeLength="392.21" waitingTime="3.00" waitingCount="1" stopTime="0.00" timeLoss="12.26" rerouteNo="0" devices="tripinfo_flow_wn.2 fcd_flow_wn.2" vType="DEFAULT_VEHTYPE" speedFactor="0.99" vaporized=""/>
    <tripinfo id="flow_en.3" depart="22.00" departLane="e_t_0" departPos="5.10" departSpeed="12.61" departDelay="0.40" arrival="57.00" arrivalLane="t_n_0" arrivalPos="186.40" arrivalSpeed="12.11" duration="35.00" routeLength="376.73" waitingTime="0.00" waitingCount="0" stopTime="0.00" timeLoss="3.29" rerouteNo="0" devices="tripinfo_flow_en.3 fcd_flow_en.3" vType="DEFAULT_VEHTYPE" speedFactor="0.91" vaporized=""/>
    <tripinfo id="flow_es.2" depart="15.00" departLane="e_t_2" departPos="5.10" departSpeed="11.71" departDelay="0.60" arrival="58.00" arrivalLane="t_s_2" arrivalPos="186.40" arrivalSpeed="11.39" duration="43.00" routeLength="392.21" waitingTime="1.00" waitingCount="1" stopTime="0.00" timeLoss="8.20" rerouteNo="0" devices="tripinfo_flow_es.2 fcd_flow_es.2" vType="DEFAULT_VEHTYPE" speedFactor="0.84" vaporized=""/>
    <tripinfo id="flow_nw.3" depart="22.00" departLane="n_t_0" departPos="5.10" departSpeed="12.24" departDelay="0.40" arrival="58.00" arrivalLane="t_w_0" arrivalPos="186.40" arrivalSpeed="11.46" duration="36.00" routeLength="376.73" waitingTime="0.00" waitingCount="0" stopTime="0.00" timeLoss="3.78" rerouteNo="0" devices="tripinfo_flow_nw.3 fcd_flow_nw.3" vType="DEFAULT_VEHTYPE" speedFactor="0.88" vaporized=""/>
    <tripinfo id="flow_wn.3" depart="22.00" departLane="w_t_2" departPos="5.10" departSpeed="16.41" departDelay="0.40" arrival="59.00" arrivalLane="t_n_2" arrivalPos="186.40" arrivalSpeed="16.05" duration="37.00" routeLength="392.21" waitingTime="0.00" waitingCount="0" stopTime="0.00" timeLoss="11.64" rerouteNo="0" devices="tripinfo_flow_wn.3 fcd_flow_wn.3" vType="DEFAULT_VEHTYPE" speedFactor="1.18" vaporized=""/>
    <tripinfo id="flow_es.3" depart="22.00" departLane="e_t_2" departPos="5.10" departSpeed="12.21" departDelay="0.40" arrival="60.00" arrivalLane="t_s_2" arrivalPos="186.40" arrivalSpeed="12.04" duration="38.00" routeLength="392.21" waitingTime="0.00" waitingCount="0" stopTime="0.00" timeLoss="4.33" rerouteNo="0" devices="tripinfo_flow_es.3 fcd_flow_es.3" vType="DEFAULT_VEHTYPE" speedFactor="0.88" vaporized=""/>
    <tripinfo id="flow_wn.4" depart="29.00" departLane="w_t_2" departPos="5.10" departSpeed="16.94" departDelay="0.20" arrival="60.00" arrivalLane="t_n_2" arrivalPos="186.40" arrivalSpeed="16.49" duration="31.00" routeLength="392.21" waitingTime="0.00" waitingCount="0" stopTime="0.00" timeLoss="7.25" rerouteNo="0" devices="tripinfo_flow_wn.4 fcd_flow_wn.4" vType="DEFAULT_VEHTYPE" speedFactor="1.22" vaporized=""/>
    <tripinfo id="flow_ws.3" depart="22.00" departLane="w_t_0" departPos="5.10" departSpeed="10.40" departDelay="0.40" arrival="63.00" arrivalLane="t_s_0" arrivalPos="186.40" arrivalSpeed="9.48" duration="41.00" routeLength="376.73" waitingTime="0.00" waitingCount="0" stopTime="0.00" timeLoss="3.24" rerouteNo="0" devices="tripinfo_flow_ws.3 fcd_flow_ws.3" vType="DEFAULT_VEHTYPE" speedFactor="0.75" vaporized=""/>
    <tripinfo id="flow_en.4" depart="29.00" departLane="e_t_0" departPos="5.10" departSpeed="12.79" departDelay="0.20" arrival="63.00" arrivalLane="t_n_0" arrivalPos="186.40" arrivalSpeed="12.60" duration="34.00" routeLength="376.73" waitingTime="0.00" waitingCount="0" stopTime="0.00" timeLoss="3.22" rerouteNo="0" devices="tripinfo_flow_en.4 fcd_flow_en.4" vType="DEFAULT_VEHTYPE" speedFactor="0.92" vaporized=""/>
    <tripinfo id="flow_nw.4" depart="29.00" departLane="n_t_0" departPos="5.10" departSpeed="12.56" departDelay="0.20" arrival="64.00" arrivalLane="t_w_0" arrivalPos="186.40" arrivalSpeed="12.07" duration="35.00" routeLength="376.73" waitingTime="0.00" waitingCount="0" stopTime="0.00" timeLoss="4.12" rerouteNo="0" devices="tripinfo_flow_nw.4 fcd_flow_nw.4" vType="DEFAULT_VEHTYPE" speedFactor="0.90" vaporized=""/>
    <tripinfo id="flow_se.4" depart="29.00" departLane="s_t_0" departPos="5.10" departSpeed="12.26" departDelay="0.20" arrival="64.00" arrivalLane="t_e_0" arrivalPos="186.40" arrivalSpeed="11.46" duration="35.00" routeLength="376.73" waitingTime="0.00" waitingCount="0" stopTime="0.00" timeLoss="3.26" rerouteNo="0" devices="tripinfo_flow_se.4 fcd_flow_se.4" vType="DEFAULT_VEHTYPE" speedFactor="0.88" vaporized=""/>
    <tripinfo id="flow_we.1" depart="8.00" departLane="w_t_1" departPos="5.10" departSpeed="13.97" departDelay="0.80" arrival="65.00" arrivalLane="t_e_1" arrivalPos="186.40" arrivalSpeed="13.00" duration="57.00" routeLength="394.90" waitingTime="21.00" waitingCount="1" stopTime="0.00" timeLoss="28.36" rerouteNo="0" devices="tripinfo_flow_we.1 fcd_flow_we.1" vType="DEFAULT_VEHTYPE" speedFactor="1.01" vaporized=""/>
    <tripinfo id="flow_ws.4" depart="29.00" departLane="w_t_0" departPos="5.10" departSpeed="12.69" departDelay="0.20" arrival="65.00" arrivalLane="t_s_0" arrivalPos="186.40" arrivalSpeed="11.91" duration="36.00" routeLength="376.73" waitingTime="0.00" waitingCount="0" stopTime="0.00" timeLoss="4.58" rerouteNo="0" devices="tripinfo_flow_ws.4 fcd_flow_ws.4" vType="DEFAULT_VEHTYPE" speedFactor="0.91" vaporized=""/>
    <tripinfo id="flow_se.5" depart="36.00" departLane="s_t_0" departPos="5.10" departSpeed="14.16" departDelay="0.00" arrival="67.00" arrivalLane="t_e_0" arrivalPos="186.40" arrivalSpeed="13.09" duration="31.00" routeLength="376.73" waitingTime="0.00" waitingCount="0" stopTime="0.00" timeLoss="3.43" rerouteNo="0" devices="tripinfo_flow_se.5 fcd_flow_se.5" vType="DEFAULT_VEHTYPE" speedFactor="1.02" vaporized=""/>
    <tripinfo id="flow_we.2" depart="15.00" departLane="w_t_1" departPos="5.10" departSpeed="14.30" departDelay="0.60" arrival="68.00" arrivalLane="t_e_1" arrivalPos="186.40" arrivalSpeed="14.24" duration="53.00" routeLength="394.90" waitingTime="17.00" waitingCount="1" stopTime="0.00" timeLoss="24.49" rerouteNo="0" devices="tripinfo_flow_we.2 fcd_flow_we.2" vType="DEFAULT_VEHTYPE" speedFactor="1.03" vaporized=""/>
    <tripinfo id="flow_nw.5" depart="36.00" departLane="n_t_0" departPos="5.10" departSpeed="12.89" departDelay="0.00" arrival="69.00" arrivalLane="t_w_0" arrivalPos="186.40" arrivalSpeed="12.46" duration="33.00" routeLength="376.73" waitingTime="0.00" waitingCount="0" stopTime="0.00" timeLoss="3.18" rerouteNo="0" devices="tripinfo_flow_nw.5 fcd_flow_nw.5" vType="DEFAULT_VEHTYPE" speedFactor="0.93" vaporized=""/>
    <tripinfo id="flow_ew.0" depart="0.00" departLane="e_t_1" departPos="5.10" departSpeed="10.62" departDelay="0.00" arrival="70.00" arrivalLane="t_w_1" arrivalPos="186.40" arrivalSpeed="9.69" duration="70.00" routeLength="394.90" waitingTime="25.00" waitingCount="1" stopTime="0.00" timeLoss="32.52" rerouteNo="0" devices="tripinfo_flow_ew.0 fcd_flow_ew.0" vType="DEFAULT_VEHTYPE" speedFactor="0.76" vaporized=""/>
    <tripinfo id="flow_ew.1" depart="8.00" departLane="e_t_1" departPos="5.10" departSpeed="13.04" departDelay="0.80" arrival="70.00" arrivalLane="t_w_2" arrivalPos="186.40" arrivalSpeed="12.09" duration="62.00" routeLength="394.90" waitingTime="23.00" waitingCount="1" stopTime="0.00" timeLoss="31.52" rerouteNo="0" devices="tripinfo_flow_ew.1 fcd_flow_ew.1" vType="DEFAULT_VEHTYPE" speedFactor="0.94" vaporized=""/>
    <tripinfo id="flow_ws.5" depart="36.00" departLane="w_t_0" departPos="5.10" departSpeed="12.65" departDelay="0.00" arrival="70.00" arrivalLane="t_s_0" arrivalPos="186.40" arrivalSpeed="12.12" duration="34.00" routeLength="376.73" waitingTime="0.00" waitingCount="0" stopTime="0.00" timeLoss="3.13" rerouteNo="0" devices="tripinfo_flow_ws.5 fcd_flow_ws.5" vType="DEFAULT_VEHTYPE" speedFactor="0.91" vaporized=""/>
    <tripinfo id="flow_se.6" depart="44.00" departLane="s_t_0" departPos="5.10" departSpeed="16.43" departDelay="0.80" arrival="71.00" arrivalLane="t_e_0" arrivalPos="186.40" arrivalSpeed="16.39" duration="27.00" routeLength="376.73" waitingTime="0.00" waitingCount="0" stopTime="0.00" timeLoss="3.28" rerouteNo="0" devices="tripinfo_flow_se.6 fcd_flow_se.6" vType="DEFAULT_VEHTYPE" speedFactor="1.18" vaporized=""/>
    <tripinfo id="flow_ew.2" depart="15.00" departLane="e_t_1" departPos="5.10" departSpeed="16.53" departDelay="0.60" arrival="72.00" arrivalLane="t_w_1" arrivalPos="186.40" arrivalSpeed="13.48" duration="57.00" routeLength="394.90" waitingTime="20.00" waitingCount="1" stopTime="0.00" timeLoss="32.61" rerouteNo="0" devices="tripinfo_flow_ew.2 fcd_flow_ew.2" vType="DEFAULT_VEHTYPE" speedFactor="1.19" vaporized=""/>
    <tripinfo id="flow_we.3" depart="22.00" departLane="w_t_1" departPos="5.10" departSpeed="11.77" departDelay="0.40" arrival="72.00" arrivalLane="t_e_1" arrivalPos="186.40" arrivalSpeed="10.76" duration="50.00" routeLength="394.90" waitingTime="9.00" waitingCount="1" stopTime="0.00" timeLoss="16.27" rerouteNo="0" devices="tripinfo_flow_we.3 fcd_flow_we.3" vType="DEFAULT_VEHTYPE" speedFactor="0.85" vaporized=""/>
    <tripinfo id="flow_en.5" depart="36.00" departLane="e_t_0" departPos="5.10" departSpeed="11.48" departDelay="0.00" arrival="73.00" arrivalLane="t_n_0" arrivalPos="186.40" arrivalSpeed="10.91" duration="37.00" routeLength="376.73" waitingTime="0.00" waitingCount="0" stopTime="0.00" timeLoss="3.51" rerouteNo="0" devices="tripinfo_flow_en.5 fcd_flow_en.5" vType="DEFAULT_VEHTYPE" speedFactor="0.83" vaporized=""/>
    <tripinfo id="flow_ew.3" depart="22.00" departLane="e_t_1" departPos="5.10" departSpeed="12.85" departDelay="0.40" arrival="74.00" arrivalLane="t_w_1" arrivalPos="186.40" arrivalSpeed="12.29" duration="52.00" routeLength="394.90" waitingTime="12.00" waitingCount="1" stopTime="0.00" timeLoss="20.62" rerouteNo="0" devices="tripinfo_flow_ew.3 fcd_flow_ew.3" vType="DEFAULT_VEHTYPE" speedFactor="0.93" vaporized=""/>
    <tripinfo id="flow_we.4" depart="29.00" departLane="w_t_1" departPos="5.10" departSpeed="13.14" departDelay="0.20" arrival="74.00" arrivalLane="t_e_1" arrivalPos="186.40" arrivalSpeed="12.73" duration="45.00" routeLength="394.90" waitingTime="6.00" waitingCount="1" stopTime="0.00" timeLoss="14.39" rerouteNo="0" devices="tripinfo_flow_we.4 fcd_flow_we.4" vType="DEFAULT_VEHTYPE" speedFactor="0.95" vaporized=""/>
    <tripinfo id="flow_ew.4" depart="29.00" departLane="e_t_1" departPos="5.10" departSpeed="15.18" departDelay="0.20" arrival="75.00" arrivalLane="t_w_1" arrivalPos="186.40" arrivalSpeed="14.18" duration="46.00" routeLength="394.90" waitingTime="8.00" waitingCount="1" stopTime="0.00" timeLoss="19.90" rerouteNo="0" devices="tripinfo_flow_ew.4 fcd_flow_ew.4" vType="DEFAULT_VEHTYPE" speedFactor="1.09" vaporized=""/>
    <tripinfo id="flow_ws.6" depart="44.00" departLane="w_t_0" departPos="5.10" departSpeed="14.18" departDelay="0.80" arrival="75.00" arrivalLane="t_s_0" arrivalPos="186.40" arrivalSpeed="13.64" duration="31.00" routeLength="376.73" waitingTime="0.00" waitingCount="0" stopTime="0.00" timeLoss="3.49" rerouteNo="0" devices="tripinfo_flow_ws.6 fcd_flow_ws.6" vType="DEFAULT_VEHTYPE" speedFactor="1.02" vaporized=""/>
    <tripinfo id="flow_we.5" depart="36.00" departLane="w_t_1" departPos="5.10" departSpeed="14.53" departDelay="0.00" arrival="76.00" arrivalLane="t_e_1" arrivalPos="186.40" arrivalSpeed="13.60" duration="40.00" routeLength="394.90" waitingTime="1.00" waitingCount="1" stopTime="0.00" timeLoss="11.96" rerouteNo="0" devices="tripinfo_flow_we.5 fcd_flow_we.5" vType="DEFAULT_VEHTYPE" speedFactor="1.05" vaporized=""/>
    <tripinfo id="flow_ew.5" depart="36.00" departLane="e_t_1" departPos="5.10" departSpeed="13.96" departDelay="0.00" arrival="77.00" arrivalLane="t_w_1" arrivalPos="186.40" arrivalSpeed="13.56" duration="41.00" routeLength="394.90" waitingTime="2.00" waitingCount="1" stopTime="0.00" timeLoss="12.31" rerouteNo="0" devices="tripinfo_flow_ew.5 fcd_flow_ew.5" vType="DEFAULT_VEHTYPE" speedFactor="1.00" vaporized=""/>
    <tripinfo id="flow_we.6" depart="44.00" departLane="w_t_1" departPos="5.10" departSpeed="15.80" departDelay="0.80" arrival="77.00" arrivalLane="t_e_1" arrivalPos="186.40" arrivalSpeed="14.84" duration="33.00" routeLength="394.90" waitingTime="0.00" waitingCount="0" stopTime="0.00" timeLoss="7.84" rerouteNo="0" devices="tripinfo_flow_we.6 fcd_flow_we.6" vType="DEFAULT_VEHTYPE" speedFactor="1.14" vaporized=""/>
    <tripinfo id="flow_nw.6" depart="44.00" departLane="n_t_0" departPos="5.10" departSpeed="12.63" departDelay="0.80" arrival="79.00" arrivalLane="t_w_0" arrivalPos="186.40" arrivalSpeed="12.03" duration="35.00" routeLength="376.73" waitingTime="0.00" waitingCount="0" stopTime="0.00" timeLoss="3.42" rerouteNo="0" devices="tripinfo_flow_nw.6 fcd_flow_nw.6" vType="DEFAULT_VEHTYPE" speedFactor="0.91" vaporized=""/>
    <tripinfo id="flow_en.6" depart="44.00" departLane="e_t_0" departPos="5.10" departSpeed="12.44" departDelay="0.80" arrival="79.00" arrivalLane="t_n_0" arrivalPos="186.40" arrivalSpeed="11.76" duration="35.00" routeLength="376.73" waitingTime="0.00" waitingCount="0" stopTime="0.00" timeLoss="3.19" rerouteNo="0" devices="tripinfo_flow_en.6 fcd_flow_en.6" vType="DEFAULT_VEHTYPE" speedFactor="0.90" vaporized=""/>
    <tripinfo id="flow_ew.6" depart="44.00" departLane="e_t_1" departPos="5.10" departSpeed="15.29" departDelay="0.80" arrival="79.00" arrivalLane="t_w_1" arrivalPos="186.40" arrivalSpeed="15.17" duration="35.00" routeLength="394.90" waitingTime="0.00" waitingCount="0" stopTime="0.00" timeLoss="8.35" rerouteNo="0" devices="tripinfo_flow_ew.6 fcd_flow_ew.6" vType="DEFAULT_VEHTYPE" speedFactor="1.10" vaporized=""/>
    <tripinfo id="flow_we.7" depart="51.00" departLane="w_t_1" departPos="5.10" departSpeed="16.23" departDelay="0.60" arrival="79.00" arrivalLane="t_e_1" arrivalPos="186.40" arrivalSpeed="15.79" duration="28.00" routeLength="394.90" waitingTime="0.00" waitingCount="0" stopTime="0.00" timeLoss="3.19" rerouteNo="0" devices="tripinfo_flow_we.7 fcd_flow_we.7" vType="DEFAULT_VEHTYPE" speedFactor="1.17" vaporized=""/>
    <tripinfo id="flow_en.7" depart="51.00" departLane="e_t_0" departPos="5.10" departSpeed="15.64" departDelay="0.60" arrival="80.00" arrivalLane="t_n_0" arrivalPos="186.40" arrivalSpeed="14.75" duration="29.00" routeLength="376.73" waitingTime="0.00" waitingCount="0" stopTime="0.00" timeLoss="3.85" rerouteNo="0" devices="tripinfo_flow_en.7 fcd_flow_en.7" vType="DEFAULT_VEHTYPE" speedFactor="1.13" vaporized=""/>
    <tripinfo id="flow_ws.7" depart="51.00" departLane="w_t_0" departPos="5.10" departSpeed="15.64" departDelay="0.60" arrival="80.00" arrivalLane="t_s_0" arrivalPos="186.40" arrivalSpeed="14.47" duration="29.00" routeLength="376.73" waitingTime="0.00" waitingCount="0" stopTime="0.00" timeLoss="3.71" rerouteNo="0" devices="tripinfo_flow_ws.7 fcd_flow_ws.7" vType="DEFAULT_VEHTYPE" speedFactor="1.13" vaporized=""/>
    <tripinfo id="flow_nw.7" depart="51.00" departLane="n_t_0" departPos="5.10" departSpeed="13.56" departDelay="0.60" arrival="83.00" arrivalLane="t_w_0" arrivalPos="186.40" arrivalSpeed="12.74" duration="32.00" routeLength="376.73" waitingTime="0.00" waitingCount="0" stopTime="0.00" timeLoss="2.95" rerouteNo="0" devices="tripinfo_flow_nw.7 fcd_flow_nw.7" vType="DEFAULT_VEHTYPE" speedFactor="0.98" vaporized=""/>
    <tripinfo id="flow_ns.3" depart="22.00" departLane="n_t_1" departPos="5.10" departSpeed="14.59" departDelay="0.40" arrival="85.00" arrivalLane="t_s_1" arrivalPos="186.40" arrivalSpeed="14.51" duration="63.00" routeLength="394.90" waitingTime="29.00" waitingCount="1" stopTime="0.00" timeLoss="35.23" rerouteNo="0" devices="tripinfo_flow_ns.3 fcd_flow_ns.3" vType="DEFAULT_VEHTYPE" speedFactor="1.05" vaporized=""/>
    <tripinfo id="flow_se.7" depart="51.00" departLane="s_t_0" departPos="5.10" departSpeed="12.83" departDelay="0.60" arrival="85.00" arrivalLane="t_e_0" arrivalPos="186.40" arrivalSpeed="11.96" duration="34.00" routeLength="376.73" waitingTime="0.00" waitingCount="0" stopTime="0.00" timeLoss="3.55" rerouteNo="0" devices="tripinfo_flow_se.7 fcd_flow_se.7" vType="DEFAULT_VEHTYPE" speedFactor="0.92" vaporized=""/>
    <tripinfo id="flow_nw.8" depart="58.00" departLane="n_t_0" departPos="5.10" departSpeed="16.17" departDelay="0.40" arrival="85.00" arrivalLane="t_w_0" arrivalPos="186.40" arrivalSpeed="15.37" duration="27.00" routeLength="376.73" waitingTime="0.00" waitingCount="0" stopTime="0.00" timeLoss="2.95" rerouteNo="0" devices="tripinfo_flow_nw.8 fcd_flow_nw.8" vType="DEFAULT_VEHTYPE" speedFactor="1.16" vaporized=""/>
    <tripinfo id="flow_en.8" depart="58.00" departLane="e_t_0" departPos="5.10" departSpeed="15.22" departDelay="0.40" arrival="87.00" arrivalLane="t_n_0" arrivalPos="186.40" arrivalSpeed="14.25" duration="29.00" routeLength="376.73" waitingTime="0.00" waitingCount="0" stopTime="0.00" timeLoss="3.14" rerouteNo="0" devices="tripinfo_flow_en.8 fcd_flow_en.8" vType="DEFAULT_VEHTYPE" speedFactor="1.10" vaporized=""/>
    <tripinfo id="flow_ws.8" depart="58.00" departLane="w_t_0" departPos="5.10" departSpeed="15.17" departDelay="0.40" arrival="87.00" arrivalLane="t_s_0" arrivalPos="186.40" arrivalSpeed="14.11" duration="29.00" routeLength="376.73" waitingTime="0.00" waitingCount="0" stopTime="0.00" timeLoss="3.35" rerouteNo="0" devices="tripinfo_flow_ws.8 fcd_flow_ws.8" vType="DEFAULT_VEHTYPE" speedFactor="1.09" vaporized=""/>
    <tripinfo id="flow_sn.3" depart="22.00" departLane="s_t_1" departPos="5.10" departSpeed="12.35" departDelay="0.40" arrival="88.00" arrivalLane="t_n_1" arrivalPos="186.40" arrivalSpeed="12.19" duration="66.00" routeLength="394.90" waitingTime="26.00" waitingCount="1" stopTime="0.00" timeLoss="33.22" rerouteNo="0" devices="tripinfo_flow_sn.3 fcd_flow_sn.3" vType="DEFAULT_VEHTYPE" speedFactor="0.89" vaporized=""/>
    <tripinfo id="flow_sn.4" depart="29.00" departLane="s_t_1" departPos="5.10" departSpeed="13.23" departDelay="0.20" arrival="89.00" arrivalLane="t_n_1" arrivalPos="186.40" arrivalSpeed="12.46" duration="60.00" routeLength="394.90" waitingTime="23.00" waitingCount="1" stopTime="0.00" timeLoss="30.06" rerouteNo="0" devices="tripinfo_flow_sn.4 fcd_flow_sn.4" vType="DEFAULT_VEHTYPE" speedFactor="0.95" vaporized=""/>
    <tripinfo id="flow_ns.4" depart="29.00" departLane="n_t_1" departPos="5.10" departSpeed="12.01" departDelay="0.20" arrival="90.00" arrivalLane="t_s_1" arrivalPos="186.40" arrivalSpeed="11.87" duration="61.00" routeLength="394.90" waitingTime="21.00" waitingCount="1" stopTime="0.00" timeLoss="27.88" rerouteNo="0" devices="tripinfo_flow_ns.4 fcd_flow_ns.4" vType="DEFAULT_VEHTYPE" speedFactor="0.86" vaporized=""/>