<?xml version="1.0" encoding="UTF-8"?>

<!-- generated on 2025-06-25 17:56:51 by Eclipse SUMO GUI Version 1.16.0
<configuration xmlns:xsi="http://www.w3.org/2001/XMLSchema-instance" xsi:noNamespaceSchemaLocation="http://sumo.dlr.de/xsd/sumoConfiguration.xsd">

    <input>
        <net-file value="./nets/syc/1x1/Equal_entries_350_CT/syc_4phases.net.xml"/>
        <route-files value="./nets/syc/1x1/Equal_entries_350_CT/equal_entries_350.rou.xml"/>
        <additional-files value="./nets/syc/1x1/Equal_entries_350_CT/1x1_outputs.add.xml"/>
    </input>

    <output>
        <fcd-output value="./nets/syc/1x1/Equal_entries_350_CT/output/fcd_output.xml"/>
        <tripinfo-output value="./nets/syc/1x1/Equal_entries_350_CT/output/tripinfo.out.xml"/>
    </output>

    <time>
        <begin value="0"/>
        <end value="1000"/>
    </time>

    <processing>
        <time-to-teleport value="-1"/>
        <waiting-time-memory value="1000"/>
        <max-depart-delay value="-1"/>
    </processing>

    <traci_server>
        <remote-port value="59268"/>
    </traci_server>

    <random_number>
        <seed value="0"/>
    </random_number>

    <gui_only>
        <quit-on-end value="true"/>
        <start value="true"/>
    </gui_only>

</configuration>
-->

<meandata xmlns:xsi="http://www.w3.org/2001/XMLSchema-instance" xsi:noNamespaceSchemaLocation="http://sumo.dlr.de/xsd/meandata_file.xsd">
    <interval begin="0.00" end="10.00" id="1">
        <edge id="e_t" sampledSeconds="51.00" traveltime="14.88" overlapTraveltime="15.39" density="27.36" laneDensity="9.12" occupancy="5.85" waitingTime="0.00" timeLoss="4.49" speed="12.53" speedRelative="0.90" departed="6" arrived="0" entered="0" left="0" laneChangedFrom="0" laneChangedTo="0"/>
        <edge id="n_t" sampledSeconds="51.00" traveltime="15.29" overlapTraveltime="15.81" density="27.36" laneDensity="9.12" occupancy="5.85" waitingTime="0.00" timeLoss="7.64" speed="12.19" speedRelative="0.88" departed="6" arrived="0" entered="0" left="0" laneChangedFrom="0" laneChangedTo="0"/>
        <edge id="s_t" sampledSeconds="51.00" traveltime="15.09" overlapTraveltime="15.61" density="27.36" laneDensity="9.12" occupancy="5.85" waitingTime="0.00" timeLoss="5.94" speed="12.36" speedRelative="0.89" departed="6" arrived="0" entered="0" left="0" laneChangedFrom="0" laneChangedTo="0"/>
        <edge id="t_e" sampledSeconds="0.00" departed="0" arrived="0" entered="0" left="0" laneChangedFrom="0" laneChangedTo="0"/>
        <edge id="t_n" sampledSeconds="0.00" departed="0" arrived="0" entered="0" left="0" laneChangedFrom="0" laneChangedTo="0"/>
        <edge id="t_s" sampledSeconds="0.00" departed="0" arrived="0" entered="0" left="0" laneChangedFrom="0" laneChangedTo="0"/>
        <edge id="t_w" sampledSeconds="0.00" departed="0" arrived="0" entered="0" left="0" laneChangedFrom="0" laneChangedTo="0"/>
        <edge id="w_t" sampledSeconds="51.00" traveltime="15.25" overlapTraveltime="15.77" density="27.36" laneDensity="9.12" occupancy="5.85" waitingTime="0.00" timeLoss="4.28" speed="12.22" speedRelative="0.88" departed="6" arrived="0" entered="0" left="0" laneChangedFrom="0" laneChangedTo="0"/>
    </interval>
    <interval begin="10.00" end="20.00" id="1">
        <edge id="e_t" sampledSeconds="68.93" traveltime="16.05" overlapTraveltime="16.79" density="36.98" laneDensity="12.33" occupancy="7.39" waitingTime="3.00" timeLoss="9.83" speed="11.47" speedRelative="0.83" departed="3" arrived="0" entered="0" left="4" laneChangedFrom="0" laneChangedTo="0"/>
        <edge id="n_t" sampledSeconds="72.72" traveltime="18.40" overlapTraveltime="19.56" density="39.01" laneDensity="13.00" occupancy="7.88" waitingTime="6.00" timeLoss="22.08" speed="9.85" speedRelative="0.71" departed="3" arrived="0" entered="0" left="3" laneChangedFrom="0" laneChangedTo="0"/>
        <edge id="s_t" sampledSeconds="70.44" traveltime="18.21" overlapTraveltime="19.32" density="37.79" laneDensity="12.60" occupancy="7.66" waitingTime="2.00" timeLoss="18.17" speed="9.97" speedRelative="0.72" departed="3" arrived="0" entered="0" left="3" laneChangedFrom="0" laneChangedTo="0"/>
        <edge id="t_e" sampledSeconds="7.88" traveltime="17.99" overlapTraveltime="18.51" density="4.23" laneDensity="1.41" occupancy="0.62" waitingTime="0.00" timeLoss="2.25" speed="10.36" speedRelative="0.75" departed="0" arrived="0" entered="3" left="0" laneChangedFrom="0" laneChangedTo="0"/>
        <edge id="t_n" sampledSeconds="6.40" traveltime="17.18" overlapTraveltime="17.68" density="3.43" laneDensity="1.14" occupancy="0.50" waitingTime="0.00" timeLoss="2.08" speed="10.85" speedRelative="0.78" departed="0" arrived="0" entered="2" left="0" laneChangedFrom="0" laneChangedTo="0"/>
        <edge id="t_s" sampledSeconds="5.70" traveltime="18.22" overlapTraveltime="18.76" density="3.06" laneDensity="1.02" occupancy="0.44" waitingTime="0.00" timeLoss="1.84" speed="10.23" speedRelative="0.74" departed="0" arrived="0" entered="2" left="0" laneChangedFrom="0" laneChangedTo="0"/>
        <edge id="t_w" sampledSeconds="8.41" traveltime="15.82" overlapTraveltime="16.29" density="4.51" laneDensity="1.50" occupancy="0.71" waitingTime="0.00" timeLoss="1.52" speed="11.78" speedRelative="0.85" departed="0" arrived="0" entered="4" left="0" laneChangedFrom="0" laneChangedTo="0"/>
        <edge id="w_t" sampledSeconds="73.72" traveltime="17.59" overlapTraveltime="18.36" density="39.55" laneDensity="13.18" occupancy="7.99" waitingTime="1.00" timeLoss="13.49" speed="10.49" speedRelative="0.75" departed="3" arrived="0" entered="0" left="3" laneChangedFrom="0" laneChangedTo="0"/>
    </interval>
    <interval begin="20.00" end="30.00" id="1">
        <edge id="e_t" sampledSeconds="67.77" traveltime="28.25" overlapTraveltime="29.08" density="36.36" laneDensity="12.12" occupancy="6.56" waitingTime="23.00" timeLoss="34.44" speed="6.60" speedRelative="0.48" departed="3" arrived="0" entered="0" left="1" laneChangedFrom="0" laneChangedTo="0"/>
        <edge id="n_t" sampledSeconds="61.75" traveltime="26.81" overlapTraveltime="27.86" density="33.13" laneDensity="11.04" occupancy="6.07" waitingTime="24.00" timeLoss="29.80" speed="6.89" speedRelative="0.50" departed="3" arrived="0" entered="0" left="2" laneChangedFrom="0" laneChangedTo="0"/>
        <edge id="s_t" sampledSeconds="60.98" traveltime="25.52" overlapTraveltime="26.55" density="32.71" laneDensity="10.90" occupancy="5.96" waitingTime="19.00" timeLoss="28.73" speed="7.23" speedRelative="0.52" departed="3" arrived="0" entered="0" left="3" laneChangedFrom="0" laneChangedTo="0"/>
        <edge id="t_e" sampledSeconds="43.40" traveltime="16.03" overlapTraveltime="16.54" density="23.29" laneDensity="7.76" occupancy="4.52" waitingTime="0.00" timeLoss="6.80" speed="11.64" speedRelative="0.84" departed="0" arrived="1" entered="3" left="0" laneChangedFrom="0" laneChangedTo="0"/>
        <edge id="t_n" sampledSeconds="20.56" traveltime="15.95" overlapTraveltime="16.44" density="11.03" laneDensity="3.68" occupancy="2.31" waitingTime="0.00" timeLoss="3.75" speed="11.73" speedRelative="0.84" departed="0" arrived="1" entered="1" left="0" laneChangedFrom="0" laneChangedTo="0"/>
        <edge id="t_s" sampledSeconds="22.06" traveltime="16.03" overlapTraveltime="16.51" density="11.84" laneDensity="3.95" occupancy="2.45" waitingTime="0.00" timeLoss="4.06" speed="11.67" speedRelative="0.84" departed="0" arrived="1" entered="1" left="0" laneChangedFrom="0" laneChangedTo="0"/>
        <edge id="t_w" sampledSeconds="55.64" traveltime="14.97" overlapTraveltime="15.47" density="29.85" laneDensity="9.95" occupancy="6.11" waitingTime="0.00" timeLoss="8.22" speed="12.46" speedRelative="0.90" departed="0" arrived="1" entered="3" left="0" laneChangedFrom="0" laneChangedTo="0"/>
        <edge id="w_t" sampledSeconds="77.88" traveltime="30.85" overlapTraveltime="31.80" density="41.78" laneDensity="13.93" occupancy="8.00" waitingTime="32.00" timeLoss="42.12" speed="6.04" speedRelative="0.44" departed="3" arrived="0" entered="0" left="1" laneChangedFrom="0" laneChangedTo="0"/>
    </interval>
    <interval begin="30.00" end="40.00" id="1">
        <edge id="e_t" sampledSeconds="81.00" traveltime="28.20" overlapTraveltime="29.48" density="43.46" laneDensity="14.49" occupancy="7.51" waitingTime="20.00" timeLoss="38.51" speed="6.50" speedRelative="0.47" departed="3" arrived="0" entered="0" left="3" laneChangedFrom="0" laneChangedTo="0"/>
        <edge id="n_t" sampledSeconds="76.00" traveltime="33.90" overlapTraveltime="34.88" density="40.77" laneDensity="13.59" occupancy="7.33" waitingTime="38.00" timeLoss="42.69" speed="5.50" speedRelative="0.40" departed="3" arrived="0" entered="0" left="0" laneChangedFrom="0" laneChangedTo="0"/>
        <edge id="s_t" sampledSeconds="66.00" traveltime="32.13" overlapTraveltime="33.07" density="35.41" laneDensity="11.80" occupancy="6.44" waitingTime="30.00" timeLoss="35.84" speed="5.80" speedRelative="0.42" departed="3" arrived="0" entered="0" left="0" laneChangedFrom="0" laneChangedTo="0"/>
        <edge id="t_e" sampledSeconds="39.36" traveltime="14.20" overlapTraveltime="14.72" density="21.11" laneDensity="7.04" occupancy="4.34" waitingTime="0.00" timeLoss="3.17" speed="13.09" speedRelative="0.94" departed="0" arrived="3" entered="0" left="0" laneChangedFrom="0" laneChangedTo="0"/>
        <edge id="t_n" sampledSeconds="21.64" traveltime="14.64" overlapTraveltime="15.14" density="11.61" laneDensity="3.87" occupancy="2.29" waitingTime="0.00" timeLoss="1.46" speed="12.72" speedRelative="0.92" departed="0" arrived="1" entered="1" left="0" laneChangedFrom="0" laneChangedTo="0"/>
        <edge id="t_s" sampledSeconds="20.25" traveltime="14.27" overlapTraveltime="14.74" density="10.86" laneDensity="3.62" occupancy="2.12" waitingTime="0.00" timeLoss="1.00" speed="13.06" speedRelative="0.94" departed="0" arrived="1" entered="1" left="0" laneChangedFrom="0" laneChangedTo="0"/>
        <edge id="t_w" sampledSeconds="45.58" traveltime="13.05" overlapTraveltime="13.50" density="24.45" laneDensity="8.15" occupancy="4.99" waitingTime="0.00" timeLoss="3.54" speed="14.27" speedRelative="1.03" departed="0" arrived="4" entered="1" left="0" laneChangedFrom="0" laneChangedTo="0"/>
        <edge id="w_t" sampledSeconds="91.24" traveltime="32.93" overlapTraveltime="34.27" density="48.95" laneDensity="16.32" occupancy="9.02" waitingTime="32.00" timeLoss="51.44" speed="5.60" speedRelative="0.40" departed="3" arrived="0" entered="0" left="2" laneChangedFrom="0" laneChangedTo="0"/>
    </interval>
    <interval begin="40.00" end="50.00" id="1">
        <edge id="e_t" sampledSeconds="70.25" traveltime="23.53" overlapTraveltime="24.34" density="37.69" laneDensity="12.56" occupancy="6.18" waitingTime="20.00" timeLoss="28.16" speed="7.86" speedRelative="0.57" departed="3" arrived="0" entered="0" left="3" laneChangedFrom="0" laneChangedTo="0"/>
        <edge id="n_t" sampledSeconds="92.04" traveltime="46.10" overlapTraveltime="47.27" density="49.38" laneDensity="16.46" occupancy="8.72" waitingTime="54.00" timeLoss="61.71" speed="4.06" speedRelative="0.29" departed="3" arrived="0" entered="0" left="1" laneChangedFrom="0" laneChangedTo="0"/>
        <edge id="s_t" sampledSeconds="86.40" traveltime="36.96" overlapTraveltime="38.09" density="46.35" laneDensity="15.45" occupancy="8.21" waitingTime="45.00" timeLoss="52.99" speed="5.03" speedRelative="0.36" departed="3" arrived="0" entered="0" left="1" laneChangedFrom="0" laneChangedTo="0"/>
        <edge id="t_e" sampledSeconds="5.60" traveltime="17.65" overlapTraveltime="17.66" density="3.01" laneDensity="1.00" occupancy="0.49" waitingTime="0.00" timeLoss="1.12" speed="10.87" speedRelative="0.78" departed="0" arrived="2" entered="1" left="0" laneChangedFrom="0" laneChangedTo="0"/>
        <edge id="t_n" sampledSeconds="38.67" traveltime="16.79" overlapTraveltime="17.25" density="20.74" laneDensity="6.91" occupancy="3.70" waitingTime="0.00" timeLoss="5.23" speed="11.13" speedRelative="0.80" departed="0" arrived="2" entered="4" left="0" laneChangedFrom="0" laneChangedTo="0"/>
        <edge id="t_s" sampledSeconds="40.63" traveltime="17.36" overlapTraveltime="17.84" density="21.80" laneDensity="7.27" occupancy="3.87" waitingTime="0.00" timeLoss="6.56" speed="10.76" speedRelative="0.77" departed="0" arrived="1" entered="5" left="0" laneChangedFrom="0" laneChangedTo="0"/>
        <edge id="t_w" sampledSeconds="13.31" traveltime="15.56" overlapTraveltime="15.57" density="7.14" laneDensity="2.38" occupancy="1.13" waitingTime="0.00" timeLoss="1.47" speed="12.30" speedRelative="0.89" departed="0" arrived="3" entered="1" left="0" laneChangedFrom="0" laneChangedTo="0"/>
        <edge id="w_t" sampledSeconds="80.05" traveltime="28.94" overlapTraveltime="29.72" density="42.94" laneDensity="14.31" occupancy="7.53" waitingTime="31.00" timeLoss="38.69" speed="6.45" speedRelative="0.46" departed="3" arrived="0" entered="0" left="5" laneChangedFrom="0" laneChangedTo="0"/>
    </interval>
    <interval begin="50.00" end="60.00" id="1">
        <edge id="e_t" sampledSeconds="70.67" traveltime="26.43" overlapTraveltime="27.07" density="37.91" laneDensity="12.64" occupancy="6.23" waitingTime="31.00" timeLoss="35.42" speed="7.07" speedRelative="0.51" departed="3" arrived="0" entered="0" left="3" laneChangedFrom="0" laneChangedTo="0"/>
        <edge id="n_t" sampledSeconds="111.88" traveltime="45.89" overlapTraveltime="46.99" density="60.02" laneDensity="20.01" occupancy="10.51" waitingTime="67.00" timeLoss="75.26" speed="4.08" speedRelative="0.29" departed="0" arrived="0" entered="0" left="1" laneChangedFrom="0" laneChangedTo="0"/>
        <edge id="s_t" sampledSeconds="104.68" traveltime="42.97" overlapTraveltime="44.08" density="56.16" laneDensity="18.72" occupancy="9.86" waitingTime="66.00" timeLoss="70.57" speed="4.35" speedRelative="0.31" departed="0" arrived="0" entered="0" left="1" laneChangedFrom="0" laneChangedTo="0"/>
        <edge id="t_e" sampledSeconds="14.61" traveltime="19.02" overlapTraveltime="19.53" density="7.84" laneDensity="2.61" occupancy="1.27" waitingTime="0.00" timeLoss="1.64" speed="9.80" speedRelative="0.71" departed="0" arrived="0" entered="1" left="0" laneChangedFrom="0" laneChangedTo="0"/>
        <edge id="t_n" sampledSeconds="56.74" traveltime="17.47" overlapTraveltime="17.98" density="30.44" laneDensity="10.15" occupancy="5.51" waitingTime="0.00" timeLoss="8.29" speed="10.67" speedRelative="0.77" departed="0" arrived="1" entered="3" left="0" laneChangedFrom="1" laneChangedTo="1"/>
        <edge id="t_s" sampledSeconds="57.87" traveltime="16.42" overlapTraveltime="16.88" density="31.05" laneDensity="10.35" occupancy="5.65" waitingTime="0.00" timeLoss="7.35" speed="11.37" speedRelative="0.82" departed="0" arrived="2" entered="1" left="0" laneChangedFrom="1" laneChangedTo="1"/>
        <edge id="t_w" sampledSeconds="16.95" traveltime="15.58" overlapTraveltime="15.99" density="9.09" laneDensity="3.03" occupancy="1.46" waitingTime="0.00" timeLoss="2.22" speed="11.97" speedRelative="0.86" departed="0" arrived="1" entered="1" left="0" laneChangedFrom="0" laneChangedTo="0"/>
        <edge id="w_t" sampledSeconds="81.90" traveltime="30.59" overlapTraveltime="31.49" density="43.94" laneDensity="14.65" occupancy="7.82" waitingTime="40.00" timeLoss="44.07" speed="6.09" speedRelative="0.44" departed="3" arrived="0" entered="0" left="1" laneChangedFrom="0" laneChangedTo="0"/>
    </interval>
    <interval begin="60.00" end="70.00" id="1">
        <edge id="e_t" sampledSeconds="81.81" traveltime="30.45" overlapTraveltime="31.22" density="43.89" laneDensity="14.63" occupancy="7.28" waitingTime="41.00" timeLoss="46.51" speed="6.13" speedRelative="0.44" departed="3" arrived="0" entered="0" left="1" laneChangedFrom="0" laneChangedTo="0"/>
        <edge id="n_t" sampledSeconds="118.04" traveltime="45.04" overlapTraveltime="45.94" density="63.33" laneDensity="21.11" occupancy="10.93" waitingTime="64.00" timeLoss="80.57" speed="4.17" speedRelative="0.30" departed="6" arrived="0" entered="0" left="4" laneChangedFrom="0" laneChangedTo="0"/>
        <edge id="s_t" sampledSeconds="110.97" traveltime="44.42" overlapTraveltime="45.38" density="59.53" laneDensity="19.84" occupancy="10.29" waitingTime="62.00" timeLoss="76.04" speed="4.22" speedRelative="0.30" departed="6" arrived="0" entered="0" left="4" laneChangedFrom="0" laneChangedTo="0"/>
        <edge id="t_e" sampledSeconds="25.23" traveltime="17.76" overlapTraveltime="18.25" density="13.54" laneDensity="4.51" occupancy="2.14" waitingTime="0.00" timeLoss="2.79" speed="10.49" speedRelative="0.76" departed="0" arrived="1" entered="3" left="0" laneChangedFrom="0" laneChangedTo="0"/>
        <edge id="t_n" sampledSeconds="34.25" traveltime="14.29" overlapTraveltime="14.75" density="18.37" laneDensity="6.12" occupancy="3.10" waitingTime="0.00" timeLoss="2.14" speed="12.98" speedRelative="0.93" departed="0" arrived="5" entered="0" left="0" laneChangedFrom="0" laneChangedTo="0"/>
        <edge id="t_s" sampledSeconds="37.02" traveltime="15.04" overlapTraveltime="15.44" density="19.86" laneDensity="6.62" occupancy="3.21" waitingTime="0.00" timeLoss="3.06" speed="12.40" speedRelative="0.89" departed="0" arrived="5" entered="3" left="0" laneChangedFrom="0" laneChangedTo="0"/>
        <edge id="t_w" sampledSeconds="15.33" traveltime="15.34" overlapTraveltime="15.70" density="8.22" laneDensity="2.74" occupancy="1.27" waitingTime="0.00" timeLoss="2.06" speed="12.19" speedRelative="0.88" departed="0" arrived="1" entered="3" left="0" laneChangedFrom="0" laneChangedTo="0"/>
        <edge id="w_t" sampledSeconds="100.90" traveltime="39.39" overlapTraveltime="40.38" density="54.13" laneDensity="18.04" occupancy="9.53" waitingTime="60.00" timeLoss="66.44" speed="4.75" speedRelative="0.34" departed="3" arrived="0" entered="0" left="1" laneChangedFrom="0" laneChangedTo="0"/>
    </interval>
    <interval begin="70.00" end="80.00" id="1">
        <edge id="e_t" sampledSeconds="99.00" traveltime="40.84" overlapTraveltime="41.88" density="53.11" laneDensity="17.70" occupancy="8.85" waitingTime="61.00" timeLoss="65.11" speed="4.57" speedRelative="0.33" departed="3" arrived="0" entered="0" left="1" laneChangedFrom="0" laneChangedTo="0"/>
        <edge id="n_t" sampledSeconds="133.99" traveltime="30.30" overlapTraveltime="31.38" density="71.88" laneDensity="23.96" occupancy="14.00" waitingTime="58.00" timeLoss="75.55" speed="6.13" speedRelative="0.44" departed="3" arrived="0" entered="0" left="3" laneChangedFrom="0" laneChangedTo="0"/>
        <edge id="s_t" sampledSeconds="133.67" traveltime="29.19" overlapTraveltime="30.26" density="71.71" laneDensity="23.90" occupancy="14.01" waitingTime="63.00" timeLoss="76.46" speed="6.36" speedRelative="0.46" departed="3" arrived="0" entered="0" left="2" laneChangedFrom="0" laneChangedTo="0"/>
        <edge id="t_e" sampledSeconds="48.47" traveltime="17.91" overlapTraveltime="18.37" density="26.00" laneDensity="8.67" occupancy="4.24" waitingTime="0.00" timeLoss="6.29" speed="10.42" speedRelative="0.75" departed="0" arrived="1" entered="3" left="0" laneChangedFrom="0" laneChangedTo="0"/>
        <edge id="t_n" sampledSeconds="11.58" traveltime="14.56" overlapTraveltime="14.86" density="6.21" laneDensity="2.07" occupancy="0.99" waitingTime="0.00" timeLoss="2.02" speed="12.88" speedRelative="0.93" departed="0" arrived="1" entered="1" left="0" laneChangedFrom="0" laneChangedTo="0"/>
        <edge id="t_s" sampledSeconds="22.00" traveltime="13.62" overlapTraveltime="14.00" density="11.80" laneDensity="3.93" occupancy="1.96" waitingTime="0.00" timeLoss="2.18" speed="13.67" speedRelative="0.98" departed="0" arrived="2" entered="0" left="0" laneChangedFrom="0" laneChangedTo="0"/>
        <edge id="t_w" sampledSeconds="42.04" traveltime="15.71" overlapTraveltime="16.14" density="22.56" laneDensity="7.52" occupancy="3.70" waitingTime="0.00" timeLoss="4.81" speed="11.86" speedRelative="0.85" departed="0" arrived="0" entered="2" left="0" laneChangedFrom="0" laneChangedTo="0"/>
        <edge id="w_t" sampledSeconds="119.00" traveltime="51.97" overlapTraveltime="53.44" density="63.84" laneDensity="21.28" occupancy="11.18" waitingTime="80.00" timeLoss="87.40" speed="3.59" speedRelative="0.26" departed="3" arrived="0" entered="0" left="0" laneChangedFrom="0" laneChangedTo="0"/>
    </interval>
    <interval begin="80.00" end="90.00" id="1">
        <edge id="e_t" sampledSeconds="116.57" traveltime="48.75" overlapTraveltime="49.95" density="62.54" laneDensity="20.85" occupancy="10.39" waitingTime="76.00" timeLoss="83.89" speed="3.83" speedRelative="0.28" departed="3" arrived="0" entered="0" left="0" laneChangedFrom="0" laneChangedTo="0"/>
        <edge id="n_t" sampledSeconds="126.85" traveltime="37.21" overlapTraveltime="38.12" density="68.05" laneDensity="22.68" occupancy="12.67" waitingTime="25.00" timeLoss="79.84" speed="5.04" speedRelative="0.36" departed="3" arrived="0" entered="0" left="5" laneChangedFrom="0" laneChangedTo="0"/>
        <edge id="s_t" sampledSeconds="125.58" traveltime="40.79" overlapTraveltime="41.72" density="67.37" laneDensity="22.46" occupancy="12.41" waitingTime="27.00" timeLoss="83.65" speed="4.60" speedRelative="0.33" departed="3" arrived="0" entered="0" left="4" laneChangedFrom="0" laneChangedTo="0"/>
        <edge id="t_e" sampledSeconds="51.50" traveltime="16.80" overlapTraveltime="17.26" density="27.63" laneDensity="9.21" occupancy="4.84" waitingTime="0.00" timeLoss="6.50" speed="11.11" speedRelative="0.80" departed="0" arrived="3" entered="1" left="0" laneChangedFrom="1" laneChangedTo="1"/>
        <edge id="t_n" sampledSeconds="24.62" traveltime="15.33" overlapTraveltime="15.72" density="13.21" laneDensity="4.40" occupancy="2.19" waitingTime="0.00" timeLoss="2.86" speed="12.20" speedRelative="0.88" departed="0" arrived="1" entered="4" left="0" laneChangedFrom="0" laneChangedTo="0"/>
        <edge id="t_s" sampledSeconds="18.35" traveltime="15.64" overlapTraveltime="16.00" density="9.84" laneDensity="3.28" occupancy="1.62" waitingTime="0.00" timeLoss="3.58" speed="11.99" speedRelative="0.86" departed="0" arrived="1" entered="4" left="0" laneChangedFrom="0" laneChangedTo="0"/>
        <edge id="t_w" sampledSeconds="31.99" traveltime="15.56" overlapTraveltime="15.97" density="17.16" laneDensity="5.72" occupancy="2.86" waitingTime="0.00" timeLoss="4.60" speed="12.00" speedRelative="0.86" departed="0" arrived="4" entered="2" left="0" laneChangedFrom="0" laneChangedTo="0"/>
        <edge id="w_t" sampledSeconds="141.30" traveltime="58.21" overlapTraveltime="59.66" density="75.80" laneDensity="25.27" occupancy="13.12" waitingTime="101.00" timeLoss="108.79" speed="3.21" speedRelative="0.23" departed="3" arrived="0" entered="0" left="1" laneChangedFrom="0" laneChangedTo="0"/>
    </interval>
    <interval begin="90.00" end="100.00" id="1">
        <edge id="e_t" sampledSeconds="135.61" traveltime="59.32" overlapTraveltime="60.61" density="72.75" laneDensity="24.25" occupancy="12.08" waitingTime="98.00" timeLoss="106.26" speed="3.16" speedRelative="0.23" departed="3" arrived="0" entered="0" left="1" laneChangedFrom="0" laneChangedTo="0"/>
        <edge id="n_t" sampledSeconds="92.57" traveltime="29.36" overlapTraveltime="29.84" density="49.66" laneDensity="16.55" occupancy="9.08" waitingTime="29.00" timeLoss="50.70" speed="6.43" speedRelative="0.46" departed="3" arrived="0" entered="0" left="5" laneChangedFrom="0" laneChangedTo="0"/>
        <edge id="s_t" sampledSeconds="95.60" traveltime="29.17" overlapTraveltime="29.73" density="51.29" laneDensity="17.10" occupancy="9.35" waitingTime="30.00" timeLoss="52.22" speed="6.46" speedRelative="0.46" departed="3" arrived="0" entered="0" left="6" laneChangedFrom="0" laneChangedTo="0"/>
        <edge id="t_e" sampledSeconds="24.47" traveltime="15.16" overlapTraveltime="15.57" density="13.13" laneDensity="4.38" occupancy="2.56" waitingTime="0.00" timeLoss="2.21" speed="12.37" speedRelative="0.89" departed="0" arrived="4" entered="1" left="0" laneChangedFrom="0" laneChangedTo="0"/>
        <edge id="t_n" sampledSeconds="60.65" traveltime="16.38" overlapTraveltime="16.83" density="32.54" laneDensity="10.85" occupancy="5.77" waitingTime="0.00" timeLoss="10.14" speed="11.40" speedRelative="0.82" departed="0" arrived="2" entered="5" left="0" laneChangedFrom="1" laneChangedTo="1"/>
        <edge id="t_s" sampledSeconds="64.65" traveltime="16.01" overlapTraveltime="16.47" density="34.69" laneDensity="11.56" occupancy="6.17" waitingTime="0.00" timeLoss="8.45" speed="11.65" speedRelative="0.84" departed="0" arrived="1" entered="6" left="0" laneChangedFrom="0" laneChangedTo="0"/>
        <edge id="t_w" sampledSeconds="20.83" traveltime="14.99" overlapTraveltime="15.47" density="11.18" laneDensity="3.73" occupancy="2.38" waitingTime="0.00" timeLoss="2.72" speed="12.47" speedRelative="0.90" departed="0" arrived="1" entered="0" left="0" laneChangedFrom="1" laneChangedTo="1"/>
        <edge id="w_t" sampledSeconds="155.18" traveltime="68.82" overlapTraveltime="70.29" density="83.25" laneDensity="27.75" occupancy="14.37" waitingTime="119.00" timeLoss="127.16" speed="2.73" speedRelative="0.20" departed="3" arrived="0" entered="0" left="1" laneChangedFrom="0" laneChangedTo="0"/>
    </interval>
    <interval begin="100.00" end="110.00" id="1">
        <edge id="e_t" sampledSeconds="141.93" traveltime="59.96" overlapTraveltime="60.35" density="76.14" laneDensity="25.38" occupancy="12.54" waitingTime="92.00" timeLoss="108.43" speed="3.17" speedRelative="0.23" departed="3" arrived="0" entered="0" left="4" laneChangedFrom="0" laneChangedTo="0"/>
        <edge id="n_t" sampledSeconds="81.17" traveltime="38.98" overlapTraveltime="40.04" density="43.55" laneDensity="14.52" occupancy="7.75" waitingTime="47.00" timeLoss="51.77" speed="4.79" speedRelative="0.34" departed="3" arrived="0" entered="0" left="1" laneChangedFrom="0" laneChangedTo="0"/>
        <edge id="s_t" sampledSeconds="81.73" traveltime="36.78" overlapTraveltime="37.61" density="43.84" laneDensity="14.61" occupancy="7.79" waitingTime="45.00" timeLoss="52.41" speed="5.10" speedRelative="0.37" departed="3" arrived="0" entered="0" left="1" laneChangedFrom="0" laneChangedTo="0"/>
        <edge id="t_e" sampledSeconds="16.58" traveltime="16.58" overlapTraveltime="16.99" density="8.89" laneDensity="2.96" occupancy="1.42" waitingTime="0.00" timeLoss="2.16" speed="11.26" speedRelative="0.81" departed="0" arrived="1" entered="1" left="0" laneChangedFrom="0" laneChangedTo="0"/>
        <edge id="t_n" sampledSeconds="88.05" traveltime="15.47" overlapTraveltime="15.93" density="47.24" laneDensity="15.75" occupancy="8.53" waitingTime="0.00" timeLoss="13.93" speed="12.05" speedRelative="0.87" departed="0" arrived="5" entered="5" left="0" laneChangedFrom="1" laneChangedTo="1"/>
        <edge id="t_s" sampledSeconds="90.88" traveltime="15.87" overlapTraveltime="16.30" density="48.75" laneDensity="16.25" occupancy="8.56" waitingTime="0.00" timeLoss="12.06" speed="11.77" speedRelative="0.85" departed="0" arrived="6" entered="4" left="0" laneChangedFrom="0" laneChangedTo="0"/>
        <edge id="t_w" sampledSeconds="16.32" traveltime="14.69" overlapTraveltime="15.12" density="8.76" laneDensity="2.92" occupancy="1.62" waitingTime="0.00" timeLoss="1.52" speed="12.71" speedRelative="0.92" departed="0" arrived="2" entered="1" left="0" laneChangedFrom="0" laneChangedTo="0"/>
        <edge id="w_t" sampledSeconds="160.69" traveltime="70.12" overlapTraveltime="70.64" density="86.21" laneDensity="28.74" occupancy="14.73" waitingTime="109.00" timeLoss="130.70" speed="2.71" speedRelative="0.20" departed="3" arrived="0" entered="0" left="4" laneChangedFrom="0" laneChangedTo="0"/>
    </interval>
    <interval begin="110.00" end="120.00" id="1">
        <edge id="e_t" sampledSeconds="130.39" traveltime="51.72" overlapTraveltime="52.28" density="69.95" laneDensity="23.32" occupancy="11.57" waitingTime="88.00" timeLoss="96.49" speed="3.66" speedRelative="0.26" departed="0" arrived="0" entered="0" left="3" laneChangedFrom="0" laneChangedTo="0"/>
        <edge id="n_t" sampledSeconds="102.69" traveltime="40.25" overlapTraveltime="41.29" density="55.09" laneDensity="18.36" occupancy="9.68" waitingTime="62.00" timeLoss="68.79" speed="4.64" speedRelative="0.33" departed="0" arrived="0" entered="0" left="1" laneChangedFrom="0" laneChangedTo="0"/>
        <edge id="s_t" sampledSeconds="103.08" traveltime="45.54" overlapTraveltime="46.63" density="55.30" laneDensity="18.43" occupancy="9.72" waitingTime="69.00" timeLoss="72.53" speed="4.11" speedRelative="0.30" departed="0" arrived="0" entered="0" left="1" laneChangedFrom="0" laneChangedTo="0"/>
        <edge id="t_e" sampledSeconds="14.25" traveltime="15.31" overlapTraveltime="15.72" density="7.64" laneDensity="2.55" occupancy="1.24" waitingTime="0.00" timeLoss="1.52" speed="12.17" speedRelative="0.88" departed="0" arrived="1" entered="1" left="0" laneChangedFrom="0" laneChangedTo="0"/>
        <edge id="t_n" sampledSeconds="71.06" traveltime="15.37" overlapTraveltime="15.77" density="38.12" laneDensity="12.71" occupancy="6.50" waitingTime="0.00" timeLoss="10.34" speed="12.15" speedRelative="0.88" departed="0" arrived="5" entered="5" left="0" laneChangedFrom="0" laneChangedTo="0"/>
        <edge id="t_s" sampledSeconds="73.39" traveltime="14.81" overlapTraveltime="15.20" density="39.37" laneDensity="13.12" occupancy="6.76" waitingTime="0.00" timeLoss="10.49" speed="12.61" speedRelative="0.91" departed="0" arrived="6" entered="4" left="0" laneChangedFrom="0" laneChangedTo="0"/>