<?xml version="1.0" encoding="UTF-8"?>

<!-- generated on 2025-08-19 16:53:17 by Eclipse SUMO GUI Version 1.16.0
<configuration xmlns:xsi="http://www.w3.org/2001/XMLSchema-instance" xsi:noNamespaceSchemaLocation="http://sumo.dlr.de/xsd/sumoConfiguration.xsd">

    <input>
        <net-file value="./nets/syc/1x1/Equal_entries_140_CT/syc_4phases.net.xml"/>
        <route-files value="./nets/syc/1x1/Equal_entries_140_CT/equal_entries_140_54_15-85-TC.rou.xml"/>
        <additional-files value="./nets/syc/1x1/Equal_entries_140_CT/1x1_outputs.add.xml"/>
    </input>

    <output>
        <fcd-output value="./nets/syc/1x1/Equal_entries_140_CT/output/fcd_output.xml"/>
        <tripinfo-output value="./nets/syc/1x1/Equal_entries_140_CT/output/tripinfo.out.xml"/>
    </output>

    <time>
        <begin value="0"/>
        <end value="1000"/>
    </time>

    <processing>
        <time-to-teleport value="-1"/>
        <waiting-time-memory value="1000"/>
        <max-depart-delay value="-1"/>
    </processing>

    <traci_server>
        <remote-port value="64873"/>
    </traci_server>

    <random_number>
        <seed value="0"/>
    </random_number>

    <gui_only>
        <quit-on-end value="true"/>
        <start value="true"/>
    </gui_only>

</configuration>
-->

<meandata xmlns:xsi="http://www.w3.org/2001/XMLSchema-instance" xsi:noNamespaceSchemaLocation="http://sumo.dlr.de/xsd/meandata_file.xsd">
    <interval begin="0.00" end="10.00" id="1">
        <edge id="e_t" sampledSeconds="51.00" traveltime="14.52" overlapTraveltime="14.90" density="27.36" laneDensity="9.12" occupancy="4.56" waitingTime="0.00" timeLoss="3.36" speed="12.84" speedRelative="0.92" departed="6" arrived="0" entered="0" left="0" laneChangedFrom="0" laneChangedTo="0"/>
        <edge id="n_t" sampledSeconds="51.00" traveltime="14.48" overlapTraveltime="14.87" density="27.36" laneDensity="9.12" occupancy="4.56" waitingTime="0.00" timeLoss="5.30" speed="12.87" speedRelative="0.93" departed="6" arrived="0" entered="0" left="0" laneChangedFrom="0" laneChangedTo="0"/>
        <edge id="s_t" sampledSeconds="51.00" traveltime="14.59" overlapTraveltime="14.99" density="27.36" laneDensity="9.12" occupancy="4.56" waitingTime="0.00" timeLoss="4.52" speed="12.77" speedRelative="0.92" departed="6" arrived="0" entered="0" left="0" laneChangedFrom="0" laneChangedTo="0"/>
        <edge id="t_e" sampledSeconds="0.00" departed="0" arrived="0" entered="0" left="0" laneChangedFrom="0" laneChangedTo="0"/>
        <edge id="t_n" sampledSeconds="0.00" departed="0" arrived="0" entered="0" left="0" laneChangedFrom="0" laneChangedTo="0"/>
        <edge id="t_s" sampledSeconds="0.00" departed="0" arrived="0" entered="0" left="0" laneChangedFrom="0" laneChangedTo="0"/>
        <edge id="t_w" sampledSeconds="0.00" departed="0" arrived="0" entered="0" left="0" laneChangedFrom="0" laneChangedTo="0"/>
        <edge id="w_t" sampledSeconds="51.00" traveltime="14.91" overlapTraveltime="15.31" density="27.36" laneDensity="9.12" occupancy="4.56" waitingTime="0.00" timeLoss="3.28" speed="12.50" speedRelative="0.90" departed="6" arrived="0" entered="0" left="0" laneChangedFrom="0" laneChangedTo="0"/>
    </interval>
    <interval begin="10.00" end="20.00" id="1">
        <edge id="e_t" sampledSeconds="47.56" traveltime="20.18" overlapTraveltime="20.91" density="25.52" laneDensity="8.51" occupancy="4.16" waitingTime="4.00" timeLoss="13.14" speed="9.15" speedRelative="0.66" departed="0" arrived="0" entered="0" left="3" laneChangedFrom="0" laneChangedTo="0"/>
        <edge id="n_t" sampledSeconds="52.62" traveltime="21.96" overlapTraveltime="22.83" density="28.23" laneDensity="9.41" occupancy="4.58" waitingTime="5.00" timeLoss="20.24" speed="8.38" speedRelative="0.60" departed="0" arrived="0" entered="0" left="4" laneChangedFrom="0" laneChangedTo="0"/>
        <edge id="s_t" sampledSeconds="51.43" traveltime="21.30" overlapTraveltime="22.49" density="27.59" laneDensity="9.20" occupancy="4.47" waitingTime="2.00" timeLoss="17.72" speed="8.51" speedRelative="0.61" departed="0" arrived="0" entered="0" left="3" laneChangedFrom="0" laneChangedTo="0"/>
        <edge id="t_e" sampledSeconds="8.29" traveltime="18.11" overlapTraveltime="18.60" density="4.45" laneDensity="1.48" occupancy="0.65" waitingTime="0.00" timeLoss="2.38" speed="10.29" speedRelative="0.74" departed="0" arrived="0" entered="3" left="0" laneChangedFrom="0" laneChangedTo="0"/>
        <edge id="t_n" sampledSeconds="5.88" traveltime="16.43" overlapTraveltime="16.87" density="3.16" laneDensity="1.05" occupancy="0.47" waitingTime="0.00" timeLoss="1.78" speed="11.34" speedRelative="0.82" departed="0" arrived="0" entered="2" left="0" laneChangedFrom="0" laneChangedTo="0"/>
        <edge id="t_s" sampledSeconds="5.86" traveltime="18.07" overlapTraveltime="18.55" density="3.14" laneDensity="1.05" occupancy="0.46" waitingTime="0.00" timeLoss="1.83" speed="10.32" speedRelative="0.74" departed="0" arrived="0" entered="2" left="0" laneChangedFrom="0" laneChangedTo="0"/>
        <edge id="t_w" sampledSeconds="7.60" traveltime="17.00" overlapTraveltime="17.45" density="4.08" laneDensity="1.36" occupancy="0.59" waitingTime="0.00" timeLoss="1.80" speed="10.97" speedRelative="0.79" departed="0" arrived="0" entered="3" left="0" laneChangedFrom="0" laneChangedTo="0"/>
        <edge id="w_t" sampledSeconds="49.02" traveltime="20.11" overlapTraveltime="20.87" density="26.30" laneDensity="8.77" occupancy="4.29" waitingTime="3.00" timeLoss="12.99" speed="9.17" speedRelative="0.66" departed="0" arrived="0" entered="0" left="3" laneChangedFrom="0" laneChangedTo="0"/>
    </interval>
    <interval begin="20.00" end="30.00" id="1">
        <edge id="e_t" sampledSeconds="30.00" traveltime="2715.53" overlapTraveltime="2788.37" density="16.09" laneDensity="5.36" occupancy="2.68" waitingTime="27.00" timeLoss="29.80" speed="0.07" speedRelative="0.00" departed="0" arrived="0" entered="0" left="0" laneChangedFrom="0" laneChangedTo="0"/>
        <edge id="n_t" sampledSeconds="20.07" traveltime="100000.00" overlapTraveltime="6750.36" density="10.77" laneDensity="3.59" occupancy="1.79" waitingTime="20.00" timeLoss="20.02" speed="0.03" speedRelative="0.00" departed="0" arrived="0" entered="0" left="0" laneChangedFrom="0" laneChangedTo="0"/>
        <edge id="s_t" sampledSeconds="21.71" traveltime="898.80" overlapTraveltime="445.81" density="11.65" laneDensity="3.88" occupancy="1.90" waitingTime="18.00" timeLoss="20.99" speed="0.43" speedRelative="0.03" departed="0" arrived="0" entered="0" left="1" laneChangedFrom="0" laneChangedTo="0"/>
        <edge id="t_e" sampledSeconds="46.89" traveltime="14.92" overlapTraveltime="15.29" density="25.16" laneDensity="8.39" occupancy="4.13" waitingTime="0.00" timeLoss="4.44" speed="12.51" speedRelative="0.90" departed="0" arrived="1" entered="2" left="0" laneChangedFrom="0" laneChangedTo="0"/>
        <edge id="t_n" sampledSeconds="18.00" traveltime="14.15" overlapTraveltime="14.49" density="9.66" laneDensity="3.22" occupancy="1.59" waitingTime="0.00" timeLoss="1.23" speed="13.21" speedRelative="0.95" departed="0" arrived="1" entered="0" left="0" laneChangedFrom="0" laneChangedTo="0"/>
        <edge id="t_s" sampledSeconds="19.54" traveltime="14.25" overlapTraveltime="14.61" density="10.48" laneDensity="3.49" occupancy="1.73" waitingTime="0.00" timeLoss="1.54" speed="13.10" speedRelative="0.94" departed="0" arrived="1" entered="0" left="0" laneChangedFrom="0" laneChangedTo="0"/>
        <edge id="t_w" sampledSeconds="44.42" traveltime="13.94" overlapTraveltime="14.31" density="23.83" laneDensity="7.94" occupancy="3.93" waitingTime="0.00" timeLoss="4.14" speed="13.37" speedRelative="0.96" departed="0" arrived="1" entered="2" left="0" laneChangedFrom="0" laneChangedTo="0"/>
        <edge id="w_t" sampledSeconds="30.00" traveltime="1058.67" overlapTraveltime="1087.06" density="16.09" laneDensity="5.36" occupancy="2.68" waitingTime="28.00" timeLoss="29.48" speed="0.18" speedRelative="0.01" departed="0" arrived="0" entered="0" left="0" laneChangedFrom="0" laneChangedTo="0"/>
    </interval>
    <interval begin="30.00" end="40.00" id="1">
        <edge id="e_t" sampledSeconds="54.00" traveltime="28.19" overlapTraveltime="28.95" density="28.97" laneDensity="9.66" occupancy="4.83" waitingTime="30.00" timeLoss="31.00" speed="6.61" speedRelative="0.48" departed="3" arrived="0" entered="0" left="0" laneChangedFrom="0" laneChangedTo="0"/>
        <edge id="n_t" sampledSeconds="44.00" traveltime="25.50" overlapTraveltime="26.19" density="23.61" laneDensity="7.87" occupancy="3.93" waitingTime="20.00" timeLoss="20.89" speed="7.31" speedRelative="0.53" departed="3" arrived="0" entered="0" left="0" laneChangedFrom="0" laneChangedTo="0"/>
        <edge id="s_t" sampledSeconds="44.00" traveltime="24.83" overlapTraveltime="25.49" density="23.61" laneDensity="7.87" occupancy="3.93" waitingTime="20.00" timeLoss="21.05" speed="7.51" speedRelative="0.54" departed="3" arrived="0" entered="0" left="0" laneChangedFrom="0" laneChangedTo="0"/>
        <edge id="t_e" sampledSeconds="23.68" traveltime="15.58" overlapTraveltime="15.91" density="12.70" laneDensity="4.23" occupancy="2.05" waitingTime="0.00" timeLoss="2.91" speed="12.03" speedRelative="0.87" departed="0" arrived="4" entered="0" left="0" laneChangedFrom="0" laneChangedTo="0"/>
        <edge id="t_n" sampledSeconds="6.76" traveltime="16.35" overlapTraveltime="16.79" density="3.63" laneDensity="1.21" occupancy="0.58" waitingTime="0.00" timeLoss="0.49" speed="11.40" speedRelative="0.82" departed="0" arrived="1" entered="0" left="0" laneChangedFrom="0" laneChangedTo="0"/>
        <edge id="t_s" sampledSeconds="5.00" traveltime="14.73" overlapTraveltime="15.11" density="2.68" laneDensity="0.89" occupancy="0.44" waitingTime="0.00" timeLoss="0.14" speed="12.67" speedRelative="0.91" departed="0" arrived="1" entered="0" left="0" laneChangedFrom="0" laneChangedTo="0"/>
        <edge id="t_w" sampledSeconds="19.37" traveltime="13.31" overlapTraveltime="13.70" density="10.39" laneDensity="3.46" occupancy="1.68" waitingTime="0.00" timeLoss="1.85" speed="13.97" speedRelative="1.01" departed="0" arrived="4" entered="0" left="0" laneChangedFrom="0" laneChangedTo="0"/>
        <edge id="w_t" sampledSeconds="54.00" traveltime="31.88" overlapTraveltime="32.74" density="28.97" laneDensity="9.66" occupancy="4.83" waitingTime="30.00" timeLoss="31.15" speed="5.85" speedRelative="0.42" departed="3" arrived="0" entered="0" left="0" laneChangedFrom="0" laneChangedTo="0"/>
    </interval>
    <interval begin="40.00" end="50.00" id="1">
        <edge id="e_t" sampledSeconds="56.77" traveltime="64.30" overlapTraveltime="64.93" density="30.46" laneDensity="10.15" occupancy="5.04" waitingTime="37.00" timeLoss="45.37" speed="2.95" speedRelative="0.21" departed="0" arrived="0" entered="0" left="1" laneChangedFrom="0" laneChangedTo="0"/>
        <edge id="n_t" sampledSeconds="42.86" traveltime="37.51" overlapTraveltime="37.92" density="22.99" laneDensity="7.66" occupancy="3.77" waitingTime="23.00" timeLoss="26.61" speed="5.05" speedRelative="0.36" departed="0" arrived="0" entered="0" left="2" laneChangedFrom="0" laneChangedTo="0"/>
        <edge id="s_t" sampledSeconds="43.28" traveltime="39.45" overlapTraveltime="39.91" density="23.22" laneDensity="7.74" occupancy="3.80" waitingTime="23.00" timeLoss="28.22" speed="4.80" speedRelative="0.35" departed="0" arrived="0" entered="0" left="2" laneChangedFrom="0" laneChangedTo="0"/>
        <edge id="t_e" sampledSeconds="4.05" traveltime="19.71" overlapTraveltime="20.24" density="2.17" laneDensity="0.72" occupancy="0.31" waitingTime="0.00" timeLoss="1.38" speed="9.46" speedRelative="0.68" departed="0" arrived="0" entered="2" left="0" laneChangedFrom="0" laneChangedTo="0"/>
        <edge id="t_n" sampledSeconds="2.56" traveltime="22.08" overlapTraveltime="22.67" density="1.37" laneDensity="0.46" occupancy="0.19" waitingTime="0.00" timeLoss="1.05" speed="8.44" speedRelative="0.61" departed="0" arrived="0" entered="1" left="0" laneChangedFrom="0" laneChangedTo="0"/>
        <edge id="t_s" sampledSeconds="2.12" traveltime="20.69" overlapTraveltime="21.24" density="1.14" laneDensity="0.38" occupancy="0.16" waitingTime="0.00" timeLoss="0.72" speed="9.01" speedRelative="0.65" departed="0" arrived="0" entered="1" left="0" laneChangedFrom="0" laneChangedTo="0"/>
        <edge id="t_w" sampledSeconds="4.43" traveltime="18.36" overlapTraveltime="18.86" density="2.38" laneDensity="0.79" occupancy="0.34" waitingTime="0.00" timeLoss="1.42" speed="10.15" speedRelative="0.73" departed="0" arrived="0" entered="2" left="0" laneChangedFrom="0" laneChangedTo="0"/>
        <edge id="w_t" sampledSeconds="57.18" traveltime="51.58" overlapTraveltime="52.45" density="30.68" laneDensity="10.23" occupancy="5.08" waitingTime="33.00" timeLoss="41.00" speed="3.65" speedRelative="0.26" departed="0" arrived="0" entered="0" left="1" laneChangedFrom="0" laneChangedTo="0"/>
    </interval>
    <interval begin="50.00" end="60.00" id="1">
        <edge id="e_t" sampledSeconds="50.00" overlapTraveltime="100000.00" density="26.82" laneDensity="8.94" occupancy="4.47" waitingTime="50.00" timeLoss="50.00" speed="0.00" speedRelative="0.00" departed="0" arrived="0" entered="0" left="0" laneChangedFrom="0" laneChangedTo="0"/>
        <edge id="n_t" sampledSeconds="30.00" traveltime="100000.00" overlapTraveltime="100000.00" density="16.09" laneDensity="5.36" occupancy="2.68" waitingTime="30.00" timeLoss="30.00" speed="0.00" speedRelative="0.00" departed="0" arrived="0" entered="0" left="0" laneChangedFrom="0" laneChangedTo="0"/>
        <edge id="s_t" sampledSeconds="30.00" traveltime="100000.00" overlapTraveltime="100000.00" density="16.09" laneDensity="5.36" occupancy="2.68" waitingTime="30.00" timeLoss="30.00" speed="0.00" speedRelative="0.00" departed="0" arrived="0" entered="0" left="0" laneChangedFrom="0" laneChangedTo="0"/>
        <edge id="t_e" sampledSeconds="20.00" traveltime="14.01" overlapTraveltime="14.38" density="10.73" laneDensity="3.58" occupancy="1.79" waitingTime="0.00" timeLoss="1.13" speed="13.31" speedRelative="0.96" departed="0" arrived="0" entered="0" left="0" laneChangedFrom="0" laneChangedTo="0"/>
        <edge id="t_n" sampledSeconds="10.00" traveltime="13.97" overlapTraveltime="14.34" density="5.36" laneDensity="1.79" occupancy="0.89" waitingTime="0.00" timeLoss="0.67" speed="13.34" speedRelative="0.96" departed="0" arrived="0" entered="0" left="0" laneChangedFrom="0" laneChangedTo="0"/>
        <edge id="t_s" sampledSeconds="10.00" traveltime="14.22" overlapTraveltime="14.61" density="5.36" laneDensity="1.79" occupancy="0.89" waitingTime="0.00" timeLoss="0.43" speed="13.11" speedRelative="0.94" departed="0" arrived="0" entered="0" left="0" laneChangedFrom="0" laneChangedTo="0"/>
        <edge id="t_w" sampledSeconds="20.00" traveltime="13.38" overlapTraveltime="13.74" density="10.73" laneDensity="3.58" occupancy="1.79" waitingTime="0.00" timeLoss="1.09" speed="13.93" speedRelative="1.00" departed="0" arrived="0" entered="0" left="0" laneChangedFrom="0" laneChangedTo="0"/>
        <edge id="w_t" sampledSeconds="50.00" traveltime="100000.00" overlapTraveltime="100000.00" density="26.82" laneDensity="8.94" occupancy="4.47" waitingTime="50.00" timeLoss="50.00" speed="0.00" speedRelative="0.00" departed="0" arrived="0" entered="0" left="0" laneChangedFrom="0" laneChangedTo="0"/>
    </interval>
    <interval begin="60.00" end="70.00" id="1">
        <edge id="e_t" sampledSeconds="74.00" traveltime="52.13" overlapTraveltime="53.53" density="39.70" laneDensity="13.23" occupancy="6.62" waitingTime="50.00" timeLoss="51.34" speed="3.58" speedRelative="0.26" departed="3" arrived="0" entered="0" left="0" laneChangedFrom="0" laneChangedTo="0"/>
        <edge id="n_t" sampledSeconds="54.00" traveltime="33.07" overlapTraveltime="33.95" density="28.97" laneDensity="9.66" occupancy="4.83" waitingTime="30.00" timeLoss="31.14" speed="5.64" speedRelative="0.41" departed="3" arrived="0" entered="0" left="0" laneChangedFrom="0" laneChangedTo="0"/>
        <edge id="s_t" sampledSeconds="54.00" traveltime="35.17" overlapTraveltime="36.11" density="28.97" laneDensity="9.66" occupancy="4.83" waitingTime="30.00" timeLoss="31.42" speed="5.30" speedRelative="0.38" departed="3" arrived="0" entered="0" left="0" laneChangedFrom="0" laneChangedTo="0"/>
        <edge id="t_e" sampledSeconds="5.75" traveltime="14.22" overlapTraveltime="14.54" density="3.08" laneDensity="1.03" occupancy="0.49" waitingTime="0.00" timeLoss="0.30" speed="13.16" speedRelative="0.95" departed="0" arrived="2" entered="0" left="0" laneChangedFrom="0" laneChangedTo="0"/>
        <edge id="t_n" sampledSeconds="2.66" traveltime="13.60" overlapTraveltime="14.00" density="1.43" laneDensity="0.48" occupancy="0.22" waitingTime="0.00" timeLoss="0.12" speed="13.67" speedRelative="0.98" departed="0" arrived="1" entered="0" left="0" laneChangedFrom="0" laneChangedTo="0"/>
        <edge id="t_s" sampledSeconds="3.00" traveltime="14.04" overlapTraveltime="14.47" density="1.61" laneDensity="0.54" occupancy="0.26" waitingTime="0.00" timeLoss="0.10" speed="13.22" speedRelative="0.95" departed="0" arrived="1" entered="0" left="0" laneChangedFrom="0" laneChangedTo="0"/>
        <edge id="t_w" sampledSeconds="4.31" traveltime="13.63" overlapTraveltime="13.93" density="2.31" laneDensity="0.77" occupancy="0.35" waitingTime="0.00" timeLoss="0.23" speed="13.74" speedRelative="0.99" departed="0" arrived="2" entered="0" left="0" laneChangedFrom="0" laneChangedTo="0"/>
        <edge id="w_t" sampledSeconds="74.00" traveltime="43.57" overlapTraveltime="44.74" density="39.70" laneDensity="13.23" occupancy="6.62" waitingTime="50.00" timeLoss="51.01" speed="4.28" speedRelative="0.31" departed="3" arrived="0" entered="0" left="0" laneChangedFrom="0" laneChangedTo="0"/>
    </interval>
    <interval begin="70.00" end="80.00" id="1">
        <edge id="e_t" sampledSeconds="70.28" traveltime="43.64" overlapTraveltime="44.36" density="37.70" laneDensity="12.57" occupancy="6.11" waitingTime="31.00" timeLoss="42.83" speed="4.31" speedRelative="0.31" departed="0" arrived="0" entered="0" left="4" laneChangedFrom="0" laneChangedTo="0"/>
        <edge id="n_t" sampledSeconds="59.02" traveltime="50.35" overlapTraveltime="51.35" density="31.66" laneDensity="10.55" occupancy="5.23" waitingTime="34.00" timeLoss="41.62" speed="3.73" speedRelative="0.27" departed="0" arrived="0" entered="0" left="1" laneChangedFrom="0" laneChangedTo="0"/>
        <edge id="s_t" sampledSeconds="56.90" traveltime="44.82" overlapTraveltime="45.74" density="30.53" laneDensity="10.18" occupancy="5.05" waitingTime="30.00" timeLoss="37.64" speed="4.18" speedRelative="0.30" departed="0" arrived="0" entered="0" left="1" laneChangedFrom="0" laneChangedTo="0"/>
        <edge id="t_e" sampledSeconds="2.37" traveltime="25.54" overlapTraveltime="26.23" density="1.27" laneDensity="0.42" occupancy="0.17" waitingTime="0.00" timeLoss="1.14" speed="7.30" speedRelative="0.53" departed="0" arrived="0" entered="1" left="0" laneChangedFrom="0" laneChangedTo="0"/>
        <edge id="t_n" sampledSeconds="3.50" traveltime="14.50" overlapTraveltime="14.89" density="1.88" laneDensity="0.63" occupancy="0.29" waitingTime="0.00" timeLoss="0.43" speed="12.85" speedRelative="0.93" departed="0" arrived="0" entered="2" left="0" laneChangedFrom="0" laneChangedTo="0"/>
        <edge id="t_s" sampledSeconds="8.07" traveltime="16.13" overlapTraveltime="16.56" density="4.33" laneDensity="1.44" occupancy="0.65" waitingTime="0.00" timeLoss="1.92" speed="11.56" speedRelative="0.83" departed="0" arrived="0" entered="3" left="0" laneChangedFrom="0" laneChangedTo="0"/>
        <edge id="t_w" sampledSeconds="0.16" traveltime="37.64" overlapTraveltime="38.65" density="0.09" laneDensity="0.03" occupancy="0.00" waitingTime="0.00" timeLoss="0.10" speed="4.95" speedRelative="0.36" departed="0" arrived="0" entered="1" left="0" laneChangedFrom="0" laneChangedTo="0"/>
        <edge id="w_t" sampledSeconds="65.59" traveltime="50.11" overlapTraveltime="50.26" density="35.19" laneDensity="11.73" occupancy="5.71" waitingTime="30.00" timeLoss="45.30" speed="3.81" speedRelative="0.27" departed="0" arrived="0" entered="0" left="4" laneChangedFrom="0" laneChangedTo="0"/>
    </interval>
    <interval begin="80.00" end="90.00" id="1">
        <edge id="e_t" sampledSeconds="31.89" traveltime="1037.69" overlapTraveltime="576.41" density="17.11" laneDensity="5.70" occupancy="2.82" waitingTime="30.00" timeLoss="30.68" speed="0.33" speedRelative="0.02" departed="0" arrived="0" entered="0" left="1" laneChangedFrom="0" laneChangedTo="0"/>
        <edge id="n_t" sampledSeconds="48.82" traveltime="8820.31" overlapTraveltime="1556.78" density="26.19" laneDensity="8.73" occupancy="4.31" waitingTime="47.00" timeLoss="48.21" speed="0.12" speedRelative="0.01" departed="0" arrived="0" entered="0" left="1" laneChangedFrom="0" laneChangedTo="0"/>
        <edge id="s_t" sampledSeconds="48.77" traveltime="7958.70" overlapTraveltime="1527.56" density="26.17" laneDensity="8.72" occupancy="4.31" waitingTime="47.00" timeLoss="48.11" speed="0.13" speedRelative="0.01" departed="0" arrived="0" entered="0" left="1" laneChangedFrom="0" laneChangedTo="0"/>
        <edge id="t_e" sampledSeconds="10.00" traveltime="14.42" overlapTraveltime="14.81" density="5.36" laneDensity="1.79" occupancy="0.89" waitingTime="0.00" timeLoss="0.77" speed="12.92" speedRelative="0.93" departed="0" arrived="0" entered="0" left="0" laneChangedFrom="0" laneChangedTo="0"/>
        <edge id="t_n" sampledSeconds="43.12" traveltime="17.67" overlapTraveltime="18.14" density="23.13" laneDensity="7.71" occupancy="3.74" waitingTime="0.00" timeLoss="5.66" speed="10.55" speedRelative="0.76" departed="0" arrived="1" entered="3" left="0" laneChangedFrom="0" laneChangedTo="0"/>
        <edge id="t_s" sampledSeconds="42.30" traveltime="15.86" overlapTraveltime="16.24" density="22.69" laneDensity="7.56" occupancy="3.70" waitingTime="0.00" timeLoss="5.09" speed="11.79" speedRelative="0.85" departed="0" arrived="1" entered="2" left="0" laneChangedFrom="0" laneChangedTo="0"/>
        <edge id="t_w" sampledSeconds="10.00" traveltime="17.40" overlapTraveltime="17.87" density="5.36" laneDensity="1.79" occupancy="0.87" waitingTime="0.00" timeLoss="1.25" speed="10.71" speedRelative="0.77" departed="0" arrived="0" entered="0" left="0" laneChangedFrom="0" laneChangedTo="0"/>
        <edge id="w_t" sampledSeconds="31.92" traveltime="826.76" overlapTraveltime="507.21" density="17.12" laneDensity="5.71" occupancy="2.82" waitingTime="30.00" timeLoss="30.74" speed="0.38" speedRelative="0.03" departed="0" arrived="0" entered="0" left="1" laneChangedFrom="0" laneChangedTo="0"/>
    </interval>
    <interval begin="90.00" end="100.00" id="1">
        <edge id="e_t" sampledSeconds="54.00" traveltime="32.05" overlapTraveltime="32.91" density="28.97" laneDensity="9.66" occupancy="4.83" waitingTime="30.00" timeLoss="31.04" speed="5.82" speedRelative="0.42" departed="3" arrived="0" entered="0" left="0" laneChangedFrom="0" laneChangedTo="0"/>
        <edge id="n_t" sampledSeconds="64.00" traveltime="42.30" overlapTraveltime="43.44" density="34.33" laneDensity="11.44" occupancy="5.72" waitingTime="40.00" timeLoss="41.41" speed="4.41" speedRelative="0.32" departed="3" arrived="0" entered="0" left="0" laneChangedFrom="0" laneChangedTo="0"/>
        <edge id="s_t" sampledSeconds="64.00" traveltime="38.10" overlapTraveltime="39.12" density="34.33" laneDensity="11.44" occupancy="5.72" waitingTime="40.00" timeLoss="41.07" speed="4.89" speedRelative="0.35" departed="3" arrived="0" entered="0" left="0" laneChangedFrom="0" laneChangedTo="0"/>
        <edge id="t_e" sampledSeconds="11.69" traveltime="14.92" overlapTraveltime="15.32" density="6.27" laneDensity="2.09" occupancy="1.02" waitingTime="0.00" timeLoss="0.75" speed="12.49" speedRelative="0.90" departed="0" arrived="1" entered="1" left="0" laneChangedFrom="0" laneChangedTo="0"/>
        <edge id="t_n" sampledSeconds="38.96" traveltime="18.08" overlapTraveltime="18.56" density="20.90" laneDensity="6.97" occupancy="3.46" waitingTime="0.00" timeLoss="3.72" speed="10.31" speedRelative="0.74" departed="0" arrived="2" entered="0" left="0" laneChangedFrom="1" laneChangedTo="1"/>
        <edge id="t_s" sampledSeconds="29.48" traveltime="17.75" overlapTraveltime="18.15" density="15.82" laneDensity="5.27" occupancy="2.62" waitingTime="0.00" timeLoss="3.56" speed="10.54" speedRelative="0.76" departed="0" arrived="3" entered="0" left="0" laneChangedFrom="2" laneChangedTo="2"/>
        <edge id="t_w" sampledSeconds="15.62" traveltime="16.39" overlapTraveltime="16.83" density="8.38" laneDensity="2.79" occupancy="1.37" waitingTime="0.00" timeLoss="1.18" speed="11.37" speedRelative="0.82" departed="0" arrived="1" entered="1" left="0" laneChangedFrom="0" laneChangedTo="0"/>
        <edge id="w_t" sampledSeconds="54.00" traveltime="34.11" overlapTraveltime="35.02" density="28.97" laneDensity="9.66" occupancy="4.83" waitingTime="30.00" timeLoss="31.47" speed="5.46" speedRelative="0.39" departed="3" arrived="0" entered="0" left="0" laneChangedFrom="0" laneChangedTo="0"/>
    </interval>
    <interval begin="100.00" end="110.00" id="1">
        <edge id="e_t" sampledSeconds="57.99" traveltime="51.84" overlapTraveltime="52.77" density="31.11" laneDensity="10.37" occupancy="5.14" waitingTime="34.00" timeLoss="41.70" speed="3.63" speedRelative="0.26" departed="0" arrived="0" entered="0" left="1" laneChangedFrom="0" laneChangedTo="0"/>
        <edge id="n_t" sampledSeconds="67.83" traveltime="53.36" overlapTraveltime="53.90" density="36.39" laneDensity="12.13" occupancy="5.99" waitingTime="43.00" timeLoss="48.01" speed="3.55" speedRelative="0.26" departed="0" arrived="0" entered="0" left="2" laneChangedFrom="0" laneChangedTo="0"/>
        <edge id="s_t" sampledSeconds="67.24" traveltime="61.17" overlapTraveltime="61.34" density="36.07" laneDensity="12.02" occupancy="5.94" waitingTime="45.00" timeLoss="50.51" speed="3.12" speedRelative="0.22" departed="0" arrived="0" entered="0" left="2" laneChangedFrom="0" laneChangedTo="0"/>
        <edge id="t_e" sampledSeconds="6.99" traveltime="15.15" overlapTraveltime="15.58" density="3.75" laneDensity="1.25" occupancy="0.60" waitingTime="0.00" timeLoss="0.45" speed="12.29" speedRelative="0.88" departed="0" arrived="1" entered="1" left="0" laneChangedFrom="0" laneChangedTo="0"/>
        <edge id="t_n" sampledSeconds="5.34" traveltime="18.50" overlapTraveltime="18.78" density="2.87" laneDensity="0.96" occupancy="0.42" waitingTime="0.00" timeLoss="0.90" speed="10.19" speedRelative="0.73" departed="0" arrived="2" entered="1" left="0" laneChangedFrom="0" laneChangedTo="0"/>
        <edge id="t_s" sampledSeconds="9.41" traveltime="17.12" overlapTraveltime="17.72" density="5.05" laneDensity="1.68" occupancy="0.79" waitingTime="0.00" timeLoss="1.71" speed="10.80" speedRelative="0.78" departed="0" arrived="1" entered="1" left="0" laneChangedFrom="0" laneChangedTo="0"/>
        <edge id="t_w" sampledSeconds="8.17" traveltime="16.01" overlapTraveltime="16.40" density="4.38" laneDensity="1.46" occupancy="0.70" waitingTime="0.00" timeLoss="0.45" speed="11.67" speedRelative="0.84" departed="0" arrived="1" entered="1" left="0" laneChangedFrom="0" laneChangedTo="0"/>
        <edge id="w_t" sampledSeconds="54.65" traveltime="49.46" overlapTraveltime="50.16" density="29.32" laneDensity="9.77" occupancy="4.86" waitingTime="33.00" timeLoss="36.72" speed="3.82" speedRelative="0.27" departed="0" arrived="0" entered="0" left="1" laneChangedFrom="0" laneChangedTo="0"/>
    </interval>
    <interval begin="110.00" end="120.00" id="1">
        <edge id="e_t" sampledSeconds="50.00" traveltime="100000.00" overlapTraveltime="100000.00" density="26.82" laneDensity="8.94" occupancy="4.47" waitingTime="50.00" timeLoss="50.00" speed="0.00" speedRelative="0.00" departed="0" arrived="0" entered="0" left="0" laneChangedFrom="0" laneChangedTo="0"/>
        <edge id="n_t" sampledSeconds="50.00" overlapTraveltime="100000.00" density="26.82" laneDensity="8.94" occupancy="4.47" waitingTime="50.00" timeLoss="50.00" speed="0.00" speedRelative="0.00" departed="0" arrived="0" entered="0" left="0" laneChangedFrom="0" laneChangedTo="0"/>
        <edge id="s_t" sampledSeconds="50.00" overlapTraveltime="100000.00" density="26.82" laneDensity="8.94" occupancy="4.47" waitingTime="50.00" timeLoss="50.00" speed="0.00" speedRelative="0.00" departed="0" arrived="0" entered="0" left="0" laneChangedFrom="0" laneChangedTo="0"/>
        <edge id="t_e" sampledSeconds="18.79" traveltime="16.23" overlapTraveltime="16.66" density="10.08" laneDensity="3.36" occupancy="1.63" waitingTime="0.00" timeLoss="1.60" speed="11.49" speedRelative="0.83" departed="0" arrived="0" entered="1" left="0" laneChangedFrom="0" laneChangedTo="0"/>
        <edge id="t_n" sampledSeconds="10.00" traveltime="15.45" overlapTraveltime="15.87" density="5.36" laneDensity="1.79" occupancy="0.89" waitingTime="0.00" timeLoss="0.82" speed="12.06" speedRelative="0.87" departed="0" arrived="0" entered="0" left="0" laneChangedFrom="0" laneChangedTo="0"/>
        <edge id="t_s" sampledSeconds="8.44" traveltime="11.63" overlapTraveltime="11.94" density="4.53" laneDensity="1.51" occupancy="0.74" waitingTime="0.00" timeLoss="0.45" speed="16.03" speedRelative="1.15" departed="0" arrived="1" entered="0" left="0" laneChangedFrom="0" laneChangedTo="0"/>
        <edge id="t_w" sampledSeconds="19.90" traveltime="16.20" overlapTraveltime="16.63" density="10.68" laneDensity="3.56" occupancy="1.73" waitingTime="0.00" timeLoss="2.15" speed="11.51" speedRelative="0.83" departed="0" arrived="0" entered="1" left="0" laneChangedFrom="0" laneChangedTo="0"/>