<?xml version="1.0" encoding="UTF-8"?>

<!-- generated on 2025-08-19 16:53:17 by Eclipse SUMO GUI Version 1.16.0
<configuration xmlns:xsi="http://www.w3.org/2001/XMLSchema-instance" xsi:noNamespaceSchemaLocation="http://sumo.dlr.de/xsd/sumoConfiguration.xsd">

    <input>
        <net-file value="./nets/syc/1x1/Equal_entries_140_CT/syc_4phases.net.xml"/>
        <route-files value="./nets/syc/1x1/Equal_entries_140_CT/equal_entries_140_54_15-85-TC.rou.xml"/>
        <additional-files value="./nets/syc/1x1/Equal_entries_140_CT/1x1_outputs.add.xml"/>
    </input>

    <output>
        <fcd-output value="./nets/syc/1x1/Equal_entries_140_CT/output/fcd_output.xml"/>
        <tripinfo-output value="./nets/syc/1x1/Equal_entries_140_CT/output/tripinfo.out.xml"/>
    </output>

    <time>
        <begin value="0"/>
        <end value="1000"/>
    </time>

    <processing>
        <time-to-teleport value="-1"/>
        <waiting-time-memory value="1000"/>
        <max-depart-delay value="-1"/>
    </processing>

    <traci_server>
        <remote-port value="64873"/>
    </traci_server>

    <random_number>
        <seed value="0"/>
    </random_number>

    <gui_only>
        <quit-on-end value="true"/>
        <start value="true"/>
    </gui_only>

</configuration>
-->

<fcd-export xmlns:xsi="http://www.w3.org/2001/XMLSchema-instance" xsi:noNamespaceSchemaLocation="http://sumo.dlr.de/xsd/fcd_file.xsd">
    <timestep time="0.00">
        <vehicle id="flow_en_car.0" x="194.90" y="8.00" angle="270.00" type="car" speed="16.43" pos="5.10" lane="e_t_0" slope="0.00"/>
        <vehicle id="flow_es_car.0" x="194.90" y="1.60" angle="270.00" type="car" speed="13.97" pos="5.10" lane="e_t_2" slope="0.00"/>
        <vehicle id="flow_ew_car.0" x="194.90" y="4.80" angle="270.00" type="car" speed="14.41" pos="5.10" lane="e_t_1" slope="0.00"/>
        <vehicle id="flow_ne_car.0" x="-1.60" y="194.90" angle="180.00" type="car" speed="12.27" pos="5.10" lane="n_t_2" slope="0.00"/>
        <vehicle id="flow_ns_car.0" x="-4.80" y="194.90" angle="180.00" type="car" speed="15.51" pos="5.10" lane="n_t_1" slope="0.00"/>
        <vehicle id="flow_nw_car.0" x="-8.00" y="194.90" angle="180.00" type="car" speed="14.31" pos="5.10" lane="n_t_0" slope="0.00"/>
        <vehicle id="flow_se_car.0" x="8.00" y="-194.90" angle="0.00" type="car" speed="15.63" pos="5.10" lane="s_t_0" slope="0.00"/>
        <vehicle id="flow_sn_car.0" x="4.80" y="-194.90" angle="0.00" type="car" speed="13.13" pos="5.10" lane="s_t_1" slope="0.00"/>
        <vehicle id="flow_sw_car.0" x="1.60" y="-194.90" angle="0.00" type="car" speed="14.64" pos="5.10" lane="s_t_2" slope="0.00"/>
        <vehicle id="flow_we_car.0" x="-194.90" y="-4.80" angle="90.00" type="car" speed="12.94" pos="5.10" lane="w_t_1" slope="0.00"/>
        <vehicle id="flow_wn_car.0" x="-194.90" y="-1.60" angle="90.00" type="car" speed="14.68" pos="5.10" lane="w_t_2" slope="0.00"/>
        <vehicle id="flow_ws_car.0" x="-194.90" y="-8.00" angle="90.00" type="car" speed="15.38" pos="5.10" lane="w_t_0" slope="0.00"/>
    </timestep>
    <timestep time="1.00">
        <vehicle id="flow_en_car.0" x="178.67" y="8.00" angle="270.00" type="car" speed="16.23" pos="21.33" lane="e_t_0" slope="0.00"/>
        <vehicle id="flow_en_truck.0" x="194.90" y="8.00" angle="270.00" type="truck" speed="12.30" pos="5.10" lane="e_t_0" slope="0.00"/>
        <vehicle id="flow_es_car.0" x="181.60" y="1.60" angle="270.00" type="car" speed="13.30" pos="18.40" lane="e_t_2" slope="0.00"/>
        <vehicle id="flow_es_truck.0" x="194.90" y="1.60" angle="270.00" type="truck" speed="10.41" pos="5.10" lane="e_t_2" slope="0.00"/>
        <vehicle id="flow_ew_car.0" x="181.50" y="4.80" angle="270.00" type="car" speed="13.40" pos="18.50" lane="e_t_1" slope="0.00"/>
        <vehicle id="flow_ew_truck.0" x="194.90" y="4.80" angle="270.00" type="truck" speed="10.90" pos="5.10" lane="e_t_1" slope="0.00"/>
        <vehicle id="flow_ne_car.0" x="-1.60" y="183.02" angle="180.00" type="car" speed="11.88" pos="16.98" lane="n_t_2" slope="0.00"/>
        <vehicle id="flow_ne_truck.0" x="-1.60" y="194.90" angle="180.00" type="truck" speed="9.38" pos="5.10" lane="n_t_2" slope="0.00"/>
        <vehicle id="flow_ns_car.0" x="-4.80" y="179.68" angle="180.00" type="car" speed="15.22" pos="20.32" lane="n_t_1" slope="0.00"/>
        <vehicle id="flow_ns_truck.0" x="-4.80" y="194.90" angle="180.00" type="truck" speed="13.29" pos="5.10" lane="n_t_1" slope="0.00"/>
        <vehicle id="flow_nw_car.0" x="-8.00" y="181.70" angle="180.00" type="car" speed="13.20" pos="18.30" lane="n_t_0" slope="0.00"/>
        <vehicle id="flow_nw_truck.0" x="-8.00" y="194.90" angle="180.00" type="truck" speed="10.70" pos="5.10" lane="n_t_0" slope="0.00"/>
        <vehicle id="flow_se_car.0" x="8.00" y="-180.11" angle="0.00" type="car" speed="14.79" pos="19.89" lane="s_t_0" slope="0.00"/>
        <vehicle id="flow_se_truck.0" x="8.00" y="-194.90" angle="0.00" type="truck" speed="12.72" pos="5.10" lane="s_t_0" slope="0.00"/>
        <vehicle id="flow_sn_car.0" x="4.80" y="-181.90" angle="0.00" type="car" speed="13.00" pos="18.10" lane="s_t_1" slope="0.00"/>
        <vehicle id="flow_sn_truck.0" x="4.80" y="-194.90" angle="0.00" type="truck" speed="10.50" pos="5.10" lane="s_t_1" slope="0.00"/>
        <vehicle id="flow_sw_car.0" x="1.60" y="-181.02" angle="0.00" type="car" speed="13.88" pos="18.98" lane="s_t_2" slope="0.00"/>
        <vehicle id="flow_sw_truck.0" x="1.60" y="-194.90" angle="0.00" type="truck" speed="11.50" pos="5.10" lane="s_t_2" slope="0.00"/>
        <vehicle id="flow_we_car.0" x="-182.01" y="-4.80" angle="90.00" type="car" speed="12.89" pos="17.99" lane="w_t_1" slope="0.00"/>
        <vehicle id="flow_we_truck.0" x="-194.90" y="-4.80" angle="90.00" type="truck" speed="10.39" pos="5.10" lane="w_t_1" slope="0.00"/>
        <vehicle id="flow_wn_car.0" x="-180.81" y="-1.60" angle="90.00" type="car" speed="14.09" pos="19.19" lane="w_t_2" slope="0.00"/>
        <vehicle id="flow_wn_truck.0" x="-194.90" y="-1.60" angle="90.00" type="truck" speed="10.06" pos="5.10" lane="w_t_2" slope="0.00"/>
        <vehicle id="flow_ws_car.0" x="-179.84" y="-8.00" angle="90.00" type="car" speed="15.06" pos="20.16" lane="w_t_0" slope="0.00"/>
        <vehicle id="flow_ws_truck.0" x="-194.90" y="-8.00" angle="90.00" type="truck" speed="13.04" pos="5.10" lane="w_t_0" slope="0.00"/>
    </timestep>
    <timestep time="2.00">
        <vehicle id="flow_en_car.0" x="162.81" y="8.00" angle="270.00" type="car" speed="15.85" pos="37.19" lane="e_t_0" slope="0.00"/>
        <vehicle id="flow_en_truck.0" x="183.57" y="8.00" angle="270.00" type="truck" speed="11.33" pos="16.43" lane="e_t_0" slope="0.00"/>
        <vehicle id="flow_es_car.0" x="168.84" y="1.60" angle="270.00" type="car" speed="12.77" pos="31.16" lane="e_t_2" slope="0.00"/>
        <vehicle id="flow_es_truck.0" x="185.50" y="1.60" angle="270.00" type="truck" speed="9.40" pos="14.50" lane="e_t_2" slope="0.00"/>
        <vehicle id="flow_ew_car.0" x="167.87" y="4.80" angle="270.00" type="car" speed="13.62" pos="32.13" lane="e_t_1" slope="0.00"/>
        <vehicle id="flow_ew_truck.0" x="184.31" y="4.80" angle="270.00" type="truck" speed="10.59" pos="15.69" lane="e_t_1" slope="0.00"/>
        <vehicle id="flow_ne_car.0" x="-1.60" y="170.99" angle="180.00" type="car" speed="12.03" pos="29.01" lane="n_t_2" slope="0.00"/>
        <vehicle id="flow_ne_truck.0" x="-1.60" y="186.21" angle="180.00" type="truck" speed="8.69" pos="13.79" lane="n_t_2" slope="0.00"/>
        <vehicle id="flow_ns_car.0" x="-4.80" y="164.60" angle="180.00" type="car" speed="15.08" pos="35.40" lane="n_t_1" slope="0.00"/>
        <vehicle id="flow_ns_truck.0" x="-4.80" y="182.29" angle="180.00" type="truck" speed="12.61" pos="17.71" lane="n_t_1" slope="0.00"/>
        <vehicle id="flow_nw_car.0" x="-8.00" y="168.45" angle="180.00" type="car" speed="13.25" pos="31.55" lane="n_t_0" slope="0.00"/>
        <vehicle id="flow_nw_truck.0" x="-8.00" y="184.43" angle="180.00" type="truck" speed="10.47" pos="15.57" lane="n_t_0" slope="0.00"/>
        <vehicle id="flow_se_car.0" x="8.00" y="-164.58" angle="0.00" type="car" speed="15.53" pos="35.42" lane="s_t_0" slope="0.00"/>
        <vehicle id="flow_se_truck.0" x="8.00" y="-182.84" angle="0.00" type="truck" speed="12.06" pos="17.16" lane="s_t_0" slope="0.00"/>
        <vehicle id="flow_sn_car.0" x="4.80" y="-169.32" angle="0.00" type="car" speed="12.57" pos="30.68" lane="s_t_1" slope="0.00"/>
        <vehicle id="flow_sn_truck.0" x="4.80" y="-185.39" angle="0.00" type="truck" speed="9.51" pos="14.61" lane="s_t_1" slope="0.00"/>
        <vehicle id="flow_sw_car.0" x="1.60" y="-167.54" angle="0.00" type="car" speed="13.49" pos="32.46" lane="s_t_2" slope="0.00"/>
        <vehicle id="flow_sw_truck.0" x="1.60" y="-184.56" angle="0.00" type="truck" speed="10.34" pos="15.44" lane="s_t_2" slope="0.00"/>
        <vehicle id="flow_we_car.0" x="-169.32" y="-4.80" angle="90.00" type="car" speed="12.69" pos="30.68" lane="w_t_1" slope="0.00"/>
        <vehicle id="flow_we_truck.0" x="-185.52" y="-4.80" angle="90.00" type="truck" speed="9.38" pos="14.48" lane="w_t_1" slope="0.00"/>
        <vehicle id="flow_wn_car.0" x="-166.71" y="-1.60" angle="90.00" type="car" speed="14.10" pos="33.29" lane="w_t_2" slope="0.00"/>
        <vehicle id="flow_wn_truck.0" x="-185.24" y="-1.60" angle="90.00" type="truck" speed="9.66" pos="14.76" lane="w_t_2" slope="0.00"/>
        <vehicle id="flow_ws_car.0" x="-165.35" y="-8.00" angle="90.00" type="car" speed="14.49" pos="34.65" lane="w_t_0" slope="0.00"/>
        <vehicle id="flow_ws_truck.0" x="-182.45" y="-8.00" angle="90.00" type="truck" speed="12.45" pos="17.55" lane="w_t_0" slope="0.00"/>
    </timestep>
    <timestep time="3.00">
        <vehicle id="flow_en_car.0" x="147.52" y="8.00" angle="270.00" type="car" speed="15.30" pos="52.48" lane="e_t_0" slope="0.00"/>
        <vehicle id="flow_en_truck.0" x="171.61" y="8.00" angle="270.00" type="truck" speed="11.95" pos="28.39" lane="e_t_0" slope="0.00"/>
        <vehicle id="flow_es_car.0" x="155.73" y="1.60" angle="270.00" type="car" speed="13.11" pos="44.27" lane="e_t_2" slope="0.00"/>
        <vehicle id="flow_es_truck.0" x="176.22" y="1.60" angle="270.00" type="truck" speed="9.28" pos="23.78" lane="e_t_2" slope="0.00"/>
        <vehicle id="flow_ew_car.0" x="154.58" y="4.80" angle="270.00" type="car" speed="13.30" pos="45.42" lane="e_t_1" slope="0.00"/>
        <vehicle id="flow_ew_truck.0" x="173.28" y="4.80" angle="270.00" type="truck" speed="11.03" pos="26.72" lane="e_t_1" slope="0.00"/>
        <vehicle id="flow_ne_car.0" x="-1.60" y="159.82" angle="180.00" type="car" speed="11.17" pos="40.18" lane="n_t_2" slope="0.00"/>
        <vehicle id="flow_ne_truck.0" x="-1.60" y="175.86" angle="180.00" type="truck" speed="10.34" pos="24.14" lane="n_t_2" slope="0.00"/>
        <vehicle id="flow_ns_car.0" x="-4.80" y="149.17" angle="180.00" type="car" speed="15.43" pos="50.83" lane="n_t_1" slope="0.00"/>
        <vehicle id="flow_ns_truck.0" x="-4.80" y="169.15" angle="180.00" type="truck" speed="13.14" pos="30.85" lane="n_t_1" slope="0.00"/>
        <vehicle id="flow_nw_car.0" x="-8.00" y="154.91" angle="180.00" type="car" speed="13.54" pos="45.09" lane="n_t_0" slope="0.00"/>
        <vehicle id="flow_nw_truck.0" x="-8.00" y="172.84" angle="180.00" type="truck" speed="11.59" pos="27.16" lane="n_t_0" slope="0.00"/>
        <vehicle id="flow_se_car.0" x="8.00" y="-149.51" angle="0.00" type="car" speed="15.07" pos="50.49" lane="s_t_0" slope="0.00"/>
        <vehicle id="flow_se_truck.0" x="8.00" y="-170.86" angle="0.00" type="truck" speed="11.99" pos="29.14" lane="s_t_0" slope="0.00"/>
        <vehicle id="flow_sn_car.0" x="4.80" y="-156.73" angle="0.00" type="car" speed="12.60" pos="43.27" lane="s_t_1" slope="0.00"/>
        <vehicle id="flow_sn_truck.0" x="4.80" y="-175.09" angle="0.00" type="truck" speed="10.30" pos="24.91" lane="s_t_1" slope="0.00"/>
        <vehicle id="flow_sw_car.0" x="1.60" y="-154.13" angle="0.00" type="car" speed="13.40" pos="45.87" lane="s_t_2" slope="0.00"/>
        <vehicle id="flow_sw_truck.0" x="1.60" y="-173.56" angle="0.00" type="truck" speed="11.01" pos="26.44" lane="s_t_2" slope="0.00"/>
        <vehicle id="flow_we_car.0" x="-156.92" y="-4.80" angle="90.00" type="car" speed="12.39" pos="43.08" lane="w_t_1" slope="0.00"/>
        <vehicle id="flow_we_truck.0" x="-174.28" y="-4.80" angle="90.00" type="truck" speed="11.24" pos="25.72" lane="w_t_1" slope="0.00"/>
        <vehicle id="flow_wn_car.0" x="-152.91" y="-1.60" angle="90.00" type="car" speed="13.80" pos="47.09" lane="w_t_2" slope="0.00"/>
        <vehicle id="flow_wn_truck.0" x="-175.48" y="-1.60" angle="90.00" type="truck" speed="9.76" pos="24.52" lane="w_t_2" slope="0.00"/>
        <vehicle id="flow_ws_car.0" x="-150.84" y="-8.00" angle="90.00" type="car" speed="14.51" pos="49.16" lane="w_t_0" slope="0.00"/>
        <vehicle id="flow_ws_truck.0" x="-169.94" y="-8.00" angle="90.00" type="truck" speed="12.50" pos="30.06" lane="w_t_0" slope="0.00"/>
    </timestep>
    <timestep time="4.00">
        <vehicle id="flow_en_car.0" x="131.20" y="8.00" angle="270.00" type="car" speed="16.32" pos="68.80" lane="e_t_0" slope="0.00"/>
        <vehicle id="flow_en_truck.0" x="160.01" y="8.00" angle="270.00" type="truck" speed="11.60" pos="39.99" lane="e_t_0" slope="0.00"/>
        <vehicle id="flow_es_car.0" x="142.24" y="1.60" angle="270.00" type="car" speed="13.49" pos="57.76" lane="e_t_2" slope="0.00"/>
        <vehicle id="flow_es_truck.0" x="165.82" y="1.60" angle="270.00" type="truck" speed="10.40" pos="34.18" lane="e_t_2" slope="0.00"/>
        <vehicle id="flow_ew_car.0" x="141.32" y="4.80" angle="270.00" type="car" speed="13.25" pos="58.68" lane="e_t_1" slope="0.00"/>
        <vehicle id="flow_ew_truck.0" x="161.93" y="4.80" angle="270.00" type="truck" speed="11.34" pos="38.07" lane="e_t_1" slope="0.00"/>
        <vehicle id="flow_ne_car.0" x="-1.60" y="148.71" angle="180.00" type="car" speed="11.11" pos="51.29" lane="n_t_2" slope="0.00"/>
        <vehicle id="flow_ne_truck.0" x="-1.60" y="165.66" angle="180.00" type="truck" speed="10.21" pos="34.34" lane="n_t_2" slope="0.00"/>
        <vehicle id="flow_ns_car.0" x="-4.80" y="134.07" angle="180.00" type="car" speed="15.10" pos="65.93" lane="n_t_1" slope="0.00"/>
        <vehicle id="flow_ns_truck.0" x="-4.80" y="154.65" angle="180.00" type="truck" speed="14.50" pos="45.35" lane="n_t_1" slope="0.00"/>
        <vehicle id="flow_nw_car.0" x="-8.00" y="140.75" angle="180.00" type="car" speed="14.16" pos="59.25" lane="n_t_0" slope="0.00"/>
        <vehicle id="flow_nw_truck.0" x="-8.00" y="160.80" angle="180.00" type="truck" speed="12.04" pos="39.20" lane="n_t_0" slope="0.00"/>
        <vehicle id="flow_se_car.0" x="8.00" y="-134.19" angle="0.00" type="car" speed="15.32" pos="65.81" lane="s_t_0" slope="0.00"/>
        <vehicle id="flow_se_truck.0" x="8.00" y="-157.96" angle="0.00" type="truck" speed="12.89" pos="42.04" lane="s_t_0" slope="0.00"/>
        <vehicle id="flow_sn_car.0" x="4.80" y="-144.53" angle="0.00" type="car" speed="12.20" pos="55.47" lane="s_t_1" slope="0.00"/>
        <vehicle id="flow_sn_truck.0" x="4.80" y="-164.65" angle="0.00" type="truck" speed="10.44" pos="35.35" lane="s_t_1" slope="0.00"/>
        <vehicle id="flow_sw_car.0" x="1.60" y="-140.73" angle="0.00" type="car" speed="13.40" pos="59.27" lane="s_t_2" slope="0.00"/>
        <vehicle id="flow_sw_truck.0" x="1.60" y="-161.71" angle="0.00" type="truck" speed="11.85" pos="38.29" lane="s_t_2" slope="0.00"/>
        <vehicle id="flow_we_car.0" x="-144.52" y="-4.80" angle="90.00" type="car" speed="12.40" pos="55.48" lane="w_t_1" slope="0.00"/>
        <vehicle id="flow_we_truck.0" x="-163.56" y="-4.80" angle="90.00" type="truck" speed="10.73" pos="36.44" lane="w_t_1" slope="0.00"/>
        <vehicle id="flow_wn_car.0" x="-138.55" y="-1.60" angle="90.00" type="car" speed="14.36" pos="61.45" lane="w_t_2" slope="0.00"/>
        <vehicle id="flow_wn_truck.0" x="-165.79" y="-1.60" angle="90.00" type="truck" speed="9.70" pos="34.21" lane="w_t_2" slope="0.00"/>
        <vehicle id="flow_ws_car.0" x="-136.65" y="-8.00" angle="90.00" type="car" speed="14.19" pos="63.35" lane="w_t_0" slope="0.00"/>
        <vehicle id="flow_ws_truck.0" x="-157.25" y="-8.00" angle="90.00" type="truck" speed="12.70" pos="42.75" lane="w_t_0" slope="0.00"/>
    </timestep>
    <timestep time="5.00">
        <vehicle id="flow_en_car.0" x="115.70" y="8.00" angle="270.00" type="car" speed="15.49" pos="84.30" lane="e_t_0" slope="0.00"/>
        <vehicle id="flow_en_truck.0" x="147.73" y="8.00" angle="270.00" type="truck" speed="12.28" pos="52.27" lane="e_t_0" slope="0.00"/>
        <vehicle id="flow_es_car.0" x="128.47" y="1.60" angle="270.00" type="car" speed="13.77" pos="71.53" lane="e_t_2" slope="0.00"/>
        <vehicle id="flow_es_truck.0" x="155.82" y="1.60" angle="270.00" type="truck" speed="10.01" pos="44.18" lane="e_t_2" slope="0.00"/>
        <vehicle id="flow_ew_car.0" x="127.14" y="4.80" angle="270.00" type="car" speed="14.18" pos="72.86" lane="e_t_1" slope="0.00"/>
        <vehicle id="flow_ew_truck.0" x="149.99" y="4.80" angle="270.00" type="truck" speed="11.94" pos="50.01" lane="e_t_1" slope="0.00"/>
        <vehicle id="flow_ne_car.0" x="-1.60" y="137.49" angle="180.00" type="car" speed="11.22" pos="62.51" lane="n_t_2" slope="0.00"/>
        <vehicle id="flow_ne_truck.0" x="-1.60" y="156.12" angle="180.00" type="truck" speed="9.53" pos="43.88" lane="n_t_2" slope="0.00"/>
        <vehicle id="flow_ns_car.0" x="-4.80" y="118.74" angle="180.00" type="car" speed="15.32" pos="81.26" lane="n_t_1" slope="0.00"/>
        <vehicle id="flow_ns_truck.0" x="-4.80" y="140.56" angle="180.00" type="truck" speed="14.09" pos="59.44" lane="n_t_1" slope="0.00"/>
        <vehicle id="flow_nw_car.0" x="-8.00" y="127.50" angle="180.00" type="car" speed="13.24" pos="72.50" lane="n_t_0" slope="0.00"/>
        <vehicle id="flow_nw_truck.0" x="-8.00" y="147.40" angle="180.00" type="truck" speed="13.40" pos="52.60" lane="n_t_0" slope="0.00"/>
        <vehicle id="flow_se_car.0" x="8.00" y="-119.74" angle="0.00" type="car" speed="14.45" pos="80.26" lane="s_t_0" slope="0.00"/>
        <vehicle id="flow_se_truck.0" x="8.00" y="-145.94" angle="0.00" type="truck" speed="12.02" pos="54.06" lane="s_t_0" slope="0.00"/>
        <vehicle id="flow_sn_car.0" x="4.80" y="-131.73" angle="0.00" type="car" speed="12.80" pos="68.27" lane="s_t_1" slope="0.00"/>
        <vehicle id="flow_sn_truck.0" x="4.80" y="-154.46" angle="0.00" type="truck" speed="10.19" pos="45.54" lane="s_t_1" slope="0.00"/>
        <vehicle id="flow_sw_car.0" x="1.60" y="-126.90" angle="0.00" type="car" speed="13.83" pos="73.10" lane="s_t_2" slope="0.00"/>
        <vehicle id="flow_sw_truck.0" x="1.60" y="-148.33" angle="0.00" type="truck" speed="13.38" pos="51.67" lane="s_t_2" slope="0.00"/>
        <vehicle id="flow_we_car.0" x="-132.16" y="-4.80" angle="90.00" type="car" speed="12.36" pos="67.84" lane="w_t_1" slope="0.00"/>
        <vehicle id="flow_we_truck.0" x="-151.46" y="-4.80" angle="90.00" type="truck" speed="12.09" pos="48.54" lane="w_t_1" slope="0.00"/>
        <vehicle id="flow_wn_car.0" x="-123.90" y="-1.60" angle="90.00" type="car" speed="14.65" pos="76.10" lane="w_t_2" slope="0.00"/>
        <vehicle id="flow_wn_truck.0" x="-156.79" y="-1.60" angle="90.00" type="truck" speed="9.00" pos="43.21" lane="w_t_2" slope="0.00"/>
        <vehicle id="flow_ws_car.0" x="-121.41" y="-8.00" angle="90.00" type="car" speed="15.24" pos="78.59" lane="w_t_0" slope="0.00"/>
        <vehicle id="flow_ws_truck.0" x="-145.34" y="-8.00" angle="90.00" type="truck" speed="11.91" pos="54.66" lane="w_t_0" slope="0.00"/>
    </timestep>
    <timestep time="6.00">
        <vehicle id="flow_en_car.0" x="99.73" y="8.00" angle="270.00" type="car" speed="15.98" pos="100.27" lane="e_t_0" slope="0.00"/>
        <vehicle id="flow_en_truck.0" x="136.63" y="8.00" angle="270.00" type="truck" speed="11.10" pos="63.37" lane="e_t_0" slope="0.00"/>
        <vehicle id="flow_es_car.0" x="114.76" y="1.60" angle="270.00" type="car" speed="13.70" pos="85.24" lane="e_t_2" slope="0.00"/>
        <vehicle id="flow_es_truck.0" x="146.66" y="1.60" angle="270.00" type="truck" speed="9.16" pos="53.34" lane="e_t_2" slope="0.00"/>
        <vehicle id="flow_ew_car.0" x="113.72" y="4.80" angle="270.00" type="car" speed="13.43" pos="86.28" lane="e_t_1" slope="0.00"/>
        <vehicle id="flow_ew_truck.0" x="136.12" y="4.80" angle="270.00" type="truck" speed="13.87" pos="63.88" lane="e_t_1" slope="0.00"/>
        <vehicle id="flow_ne_car.0" x="-1.60" y="125.76" angle="180.00" type="car" speed="11.73" pos="74.24" lane="n_t_2" slope="0.00"/>
        <vehicle id="flow_ne_truck.0" x="-1.60" y="145.79" angle="180.00" type="truck" speed="10.34" pos="54.21" lane="n_t_2" slope="0.00"/>
        <vehicle id="flow_ns_car.0" x="-4.80" y="104.15" angle="180.00" type="car" speed="14.59" pos="95.85" lane="n_t_1" slope="0.00"/>
        <vehicle id="flow_ns_truck.0" x="-4.80" y="126.28" angle="180.00" type="truck" speed="14.27" pos="73.72" lane="n_t_1" slope="0.00"/>
        <vehicle id="flow_nw_car.0" x="-8.00" y="114.40" angle="180.00" type="car" speed="13.10" pos="85.60" lane="n_t_0" slope="0.00"/>
        <vehicle id="flow_nw_truck.0" x="-8.00" y="135.13" angle="180.00" type="truck" speed="12.27" pos="64.87" lane="n_t_0" slope="0.00"/>
        <vehicle id="flow_se_car.0" x="8.00" y="-104.37" angle="0.00" type="car" speed="15.37" pos="95.63" lane="s_t_0" slope="0.00"/>
        <vehicle id="flow_se_truck.0" x="8.00" y="-133.79" angle="0.00" type="truck" speed="12.15" pos="66.21" lane="s_t_0" slope="0.00"/>
        <vehicle id="flow_sn_car.0" x="4.80" y="-119.48" angle="0.00" type="car" speed="12.25" pos="80.52" lane="s_t_1" slope="0.00"/>
        <vehicle id="flow_sn_truck.0" x="4.80" y="-143.95" angle="0.00" type="truck" speed="10.51" pos="56.05" lane="s_t_1" slope="0.00"/>
        <vehicle id="flow_sw_car.0" x="1.60" y="-113.09" angle="0.00" type="car" speed="13.81" pos="86.91" lane="s_t_2" slope="0.00"/>
        <vehicle id="flow_sw_truck.0" x="1.60" y="-135.37" angle="0.00" type="truck" speed="12.96" pos="64.63" lane="s_t_2" slope="0.00"/>
        <vehicle id="flow_we_car.0" x="-119.35" y="-4.80" angle="90.00" type="car" speed="12.81" pos="80.65" lane="w_t_1" slope="0.00"/>
        <vehicle id="flow_we_truck.0" x="-140.50" y="-4.80" angle="90.00" type="truck" speed="10.96" pos="59.50" lane="w_t_1" slope="0.00"/>
        <vehicle id="flow_wn_car.0" x="-110.12" y="-1.60" angle="90.00" type="car" speed="13.78" pos="89.88" lane="w_t_2" slope="0.00"/>
        <vehicle id="flow_wn_truck.0" x="-146.87" y="-1.60" angle="90.00" type="truck" speed="9.91" pos="53.13" lane="w_t_2" slope="0.00"/>
        <vehicle id="flow_ws_car.0" x="-107.00" y="-8.00" angle="90.00" type="car" speed="14.41" pos="93.00" lane="w_t_0" slope="0.00"/>
        <vehicle id="flow_ws_truck.0" x="-132.54" y="-8.00" angle="90.00" type="truck" speed="12.80" pos="67.46" lane="w_t_0" slope="0.00"/>
    </timestep>
    <timestep time="7.00">
        <vehicle id="flow_en_car.0" x="83.34" y="8.00" angle="270.00" type="car" speed="16.39" pos="116.66" lane="e_t_0" slope="0.00"/>
        <vehicle id="flow_en_truck.0" x="125.50" y="8.00" angle="270.00" type="truck" speed="11.13" pos="74.50" lane="e_t_0" slope="0.00"/>
        <vehicle id="flow_es_car.0" x="101.09" y="1.60" angle="270.00" type="car" speed="13.68" pos="98.91" lane="e_t_2" slope="0.00"/>
        <vehicle id="flow_es_truck.0" x="136.92" y="1.60" angle="270.00" type="truck" speed="9.74" pos="63.08" lane="e_t_2" slope="0.00"/>
        <vehicle id="flow_ew_car.0" x="100.28" y="4.80" angle="270.00" type="car" speed="13.44" pos="99.72" lane="e_t_1" slope="0.00"/>
        <vehicle id="flow_ew_truck.0" x="123.10" y="4.80" angle="270.00" type="truck" speed="13.02" pos="76.90" lane="e_t_1" slope="0.00"/>
        <vehicle id="flow_ne_car.0" x="-1.60" y="113.62" angle="180.00" type="car" speed="12.13" pos="86.38" lane="n_t_2" slope="0.00"/>
        <vehicle id="flow_ne_truck.0" x="-1.60" y="134.62" angle="180.00" type="truck" speed="11.17" pos="65.38" lane="n_t_2" slope="0.00"/>
        <vehicle id="flow_ns_car.0" x="-4.80" y="88.85" angle="180.00" type="car" speed="15.31" pos="111.15" lane="n_t_1" slope="0.00"/>
        <vehicle id="flow_ns_truck.0" x="-4.80" y="112.62" angle="180.00" type="truck" speed="13.67" pos="87.38" lane="n_t_1" slope="0.00"/>
        <vehicle id="flow_nw_car.0" x="-8.00" y="100.13" angle="180.00" type="car" speed="14.27" pos="99.87" lane="n_t_0" slope="0.00"/>
        <vehicle id="flow_nw_truck.0" x="-8.00" y="122.38" angle="180.00" type="truck" speed="12.74" pos="77.62" lane="n_t_0" slope="0.00"/>
        <vehicle id="flow_se_car.0" x="8.00" y="-88.75" angle="0.00" type="car" speed="15.62" pos="111.25" lane="s_t_0" slope="0.00"/>
        <vehicle id="flow_se_truck.0" x="8.00" y="-121.53" angle="0.00" type="truck" speed="12.26" pos="78.47" lane="s_t_0" slope="0.00"/>
        <vehicle id="flow_sn_car.0" x="4.80" y="-106.40" angle="0.00" type="car" speed="13.08" pos="93.60" lane="s_t_1" slope="0.00"/>
        <vehicle id="flow_sn_truck.0" x="4.80" y="-134.21" angle="0.00" type="truck" speed="9.74" pos="65.79" lane="s_t_1" slope="0.00"/>
        <vehicle id="flow_sw_car.0" x="1.60" y="-99.68" angle="0.00" type="car" speed="13.41" pos="100.32" lane="s_t_2" slope="0.00"/>
        <vehicle id="flow_sw_truck.0" x="1.60" y="-121.81" angle="0.00" type="truck" speed="13.56" pos="78.19" lane="s_t_2" slope="0.00"/>
        <vehicle id="flow_we_car.0" x="-107.39" y="-4.80" angle="90.00" type="car" speed="11.95" pos="92.61" lane="w_t_1" slope="0.00"/>
        <vehicle id="flow_we_truck.0" x="-127.97" y="-4.80" angle="90.00" type="truck" speed="12.54" pos="72.03" lane="w_t_1" slope="0.00"/>
        <vehicle id="flow_wn_car.0" x="-96.11" y="-1.60" angle="90.00" type="car" speed="14.01" pos="103.89" lane="w_t_2" slope="0.00"/>
        <vehicle id="flow_wn_truck.0" x="-137.63" y="-1.60" angle="90.00" type="truck" speed="9.24" pos="62.37" lane="w_t_2" slope="0.00"/>
        <vehicle id="flow_ws_car.0" x="-92.41" y="-8.00" angle="90.00" type="car" speed="14.59" pos="107.59" lane="w_t_0" slope="0.00"/>
        <vehicle id="flow_ws_truck.0" x="-119.53" y="-8.00" angle="90.00" type="truck" speed="13.01" pos="80.47" lane="w_t_0" slope="0.00"/>
    </timestep>
    <timestep time="8.00">
        <vehicle id="flow_en_car.0" x="67.29" y="8.00" angle="270.00" type="car" speed="16.05" pos="132.71" lane="e_t_0" slope="0.00"/>
        <vehicle id="flow_en_truck.0" x="113.25" y="8.00" angle="270.00" type="truck" speed="12.25" pos="86.75" lane="e_t_0" slope="0.00"/>
        <vehicle id="flow_es_car.0" x="87.54" y="1.60" angle="270.00" type="car" speed="13.55" pos="112.46" lane="e_t_2" slope="0.00"/>
        <vehicle id="flow_es_truck.0" x="126.92" y="1.60" angle="270.00" type="truck" speed="9.99" pos="73.08" lane="e_t_2" slope="0.00"/>
        <vehicle id="flow_ew_car.0" x="86.66" y="4.80" angle="270.00" type="car" speed="13.62" pos="113.34" lane="e_t_1" slope="0.00"/>
        <vehicle id="flow_ew_truck.0" x="110.19" y="4.80" angle="270.00" type="truck" speed="12.92" pos="89.81" lane="e_t_1" slope="0.00"/>
        <vehicle id="flow_ne_car.0" x="-1.60" y="101.64" angle="180.00" type="car" speed="11.98" pos="98.36" lane="n_t_2" slope="0.00"/>
        <vehicle id="flow_ne_truck.0" x="-1.60" y="122.78" angle="180.00" type="truck" speed="11.84" pos="77.22" lane="n_t_2" slope="0.00"/>
        <vehicle id="flow_ns_car.0" x="-4.80" y="74.19" angle="180.00" type="car" speed="14.66" pos="125.81" lane="n_t_1" slope="0.00"/>
        <vehicle id="flow_ns_truck.0" x="-4.80" y="98.27" angle="180.00" type="truck" speed="14.35" pos="101.73" lane="n_t_1" slope="0.00"/>
        <vehicle id="flow_nw_car.0" x="-8.00" y="86.89" angle="180.00" type="car" speed="13.24" pos="113.11" lane="n_t_0" slope="0.00"/>
        <vehicle id="flow_nw_truck.0" x="-8.00" y="108.68" angle="180.00" type="truck" speed="13.71" pos="91.32" lane="n_t_0" slope="0.00"/>
        <vehicle id="flow_se_car.0" x="8.00" y="-73.68" angle="0.00" type="car" speed="15.08" pos="126.32" lane="s_t_0" slope="0.00"/>
        <vehicle id="flow_se_truck.0" x="8.00" y="-109.69" angle="0.00" type="truck" speed="11.84" pos="90.31" lane="s_t_0" slope="0.00"/>
        <vehicle id="flow_sn_car.0" x="4.80" y="-93.42" angle="0.00" type="car" speed="12.98" pos="106.58" lane="s_t_1" slope="0.00"/>
        <vehicle id="flow_sn_truck.0" x="4.80" y="-124.64" angle="0.00" type="truck" speed="9.57" pos="75.36" lane="s_t_1" slope="0.00"/>
        <vehicle id="flow_sw_car.0" x="1.60" y="-85.92" angle="0.00" type="car" speed="13.77" pos="114.08" lane="s_t_2" slope="0.00"/>
        <vehicle id="flow_sw_truck.0" x="1.60" y="-108.75" angle="0.00" type="truck" speed="13.06" pos="91.25" lane="s_t_2" slope="0.00"/>
        <vehicle id="flow_we_car.0" x="-94.89" y="-4.80" angle="90.00" type="car" speed="12.50" pos="105.11" lane="w_t_1" slope="0.00"/>
        <vehicle id="flow_we_truck.0" x="-115.97" y="-4.80" angle="90.00" type="truck" speed="12.00" pos="84.03" lane="w_t_1" slope="0.00"/>
        <vehicle id="flow_wn_car.0" x="-82.21" y="-1.60" angle="90.00" type="car" speed="13.90" pos="117.79" lane="w_t_2" slope="0.00"/>
        <vehicle id="flow_wn_truck.0" x="-127.93" y="-1.60" angle="90.00" type="truck" speed="9.70" pos="72.07" lane="w_t_2" slope="0.00"/>
        <vehicle id="flow_ws_car.0" x="-78.13" y="-8.00" angle="90.00" type="car" speed="14.28" pos="121.87" lane="w_t_0" slope="0.00"/>
        <vehicle id="flow_ws_truck.0" x="-107.73" y="-8.00" angle="90.00" type="truck" speed="11.80" pos="92.27" lane="w_t_0" slope="0.00"/>
    </timestep>
    <timestep time="9.00">