<?xml version="1.0" encoding="UTF-8"?>

<!-- generated on 2025-08-19 16:53:17 by Eclipse SUMO GUI Version 1.16.0
<configuration xmlns:xsi="http://www.w3.org/2001/XMLSchema-instance" xsi:noNamespaceSchemaLocation="http://sumo.dlr.de/xsd/sumoConfiguration.xsd">

    <input>
        <net-file value="./nets/syc/1x1/Equal_entries_140_CT/syc_4phases.net.xml"/>
        <route-files value="./nets/syc/1x1/Equal_entries_140_CT/equal_entries_140_54_15-85-TC.rou.xml"/>
        <additional-files value="./nets/syc/1x1/Equal_entries_140_CT/1x1_outputs.add.xml"/>
    </input>

    <output>
        <fcd-output value="./nets/syc/1x1/Equal_entries_140_CT/output/fcd_output.xml"/>
        <tripinfo-output value="./nets/syc/1x1/Equal_entries_140_CT/output/tripinfo.out.xml"/>
    </output>

    <time>
        <begin value="0"/>
        <end value="1000"/>
    </time>

    <processing>
        <time-to-teleport value="-1"/>
        <waiting-time-memory value="1000"/>
        <max-depart-delay value="-1"/>
    </processing>

    <traci_server>
        <remote-port value="64873"/>
    </traci_server>

    <random_number>
        <seed value="0"/>
    </random_number>

    <gui_only>
        <quit-on-end value="true"/>
        <start value="true"/>
    </gui_only>

</configuration>
-->

<tripinfos xmlns:xsi="http://www.w3.org/2001/XMLSchema-instance" xsi:noNamespaceSchemaLocation="http://sumo.dlr.de/xsd/tripinfo_file.xsd">
    <tripinfo id="flow_en_car.0" depart="0.00" departLane="e_t_0" departPos="5.10" departSpeed="16.43" departDelay="0.00" arrival="27.00" arrivalLane="t_n_0" arrivalPos="186.40" arrivalSpeed="15.71" duration="27.00" routeLength="376.73" waitingTime="0.00" waitingCount="0" stopTime="0.00" timeLoss="3.41" rerouteNo="0" devices="tripinfo_flow_en_car.0 fcd_flow_en_car.0" vType="car" speedFactor="1.18" vaporized=""/>
    <tripinfo id="flow_se_car.0" depart="0.00" departLane="s_t_0" departPos="5.10" departSpeed="15.63" departDelay="0.00" arrival="29.00" arrivalLane="t_e_0" arrivalPos="186.40" arrivalSpeed="15.51" duration="29.00" routeLength="376.73" waitingTime="0.00" waitingCount="0" stopTime="0.00" timeLoss="3.02" rerouteNo="0" devices="tripinfo_flow_se_car.0 fcd_flow_se_car.0" vType="car" speedFactor="1.13" vaporized=""/>
    <tripinfo id="flow_ew_car.0" depart="0.00" departLane="e_t_1" departPos="5.10" departSpeed="14.41" departDelay="0.00" arrival="29.00" arrivalLane="t_w_1" arrivalPos="186.40" arrivalSpeed="13.23" duration="29.00" routeLength="394.90" waitingTime="0.00" waitingCount="0" stopTime="0.00" timeLoss="1.58" rerouteNo="0" devices="tripinfo_flow_ew_car.0 fcd_flow_ew_car.0" vType="car" speedFactor="1.04" vaporized=""/>
    <tripinfo id="flow_ws_car.0" depart="0.00" departLane="w_t_0" departPos="5.10" departSpeed="15.38" departDelay="0.00" arrival="29.00" arrivalLane="t_s_0" arrivalPos="186.40" arrivalSpeed="14.32" duration="29.00" routeLength="376.73" waitingTime="0.00" waitingCount="0" stopTime="0.00" timeLoss="3.27" rerouteNo="0" devices="tripinfo_flow_ws_car.0 fcd_flow_ws_car.0" vType="car" speedFactor="1.11" vaporized=""/>
    <tripinfo id="flow_nw_car.0" depart="0.00" departLane="n_t_0" departPos="5.10" departSpeed="14.31" departDelay="0.00" arrival="31.00" arrivalLane="t_w_0" arrivalPos="186.40" arrivalSpeed="13.04" duration="31.00" routeLength="376.73" waitingTime="0.00" waitingCount="0" stopTime="0.00" timeLoss="3.76" rerouteNo="0" devices="tripinfo_flow_nw_car.0 fcd_flow_nw_car.0" vType="car" speedFactor="1.03" vaporized=""/>
    <tripinfo id="flow_we_car.0" depart="0.00" departLane="w_t_1" departPos="5.10" departSpeed="12.94" departDelay="0.00" arrival="33.00" arrivalLane="t_e_1" arrivalPos="186.40" arrivalSpeed="12.93" duration="33.00" routeLength="394.90" waitingTime="0.00" waitingCount="0" stopTime="0.00" timeLoss="1.70" rerouteNo="0" devices="tripinfo_flow_we_car.0 fcd_flow_we_car.0" vType="car" speedFactor="0.93" vaporized=""/>
    <tripinfo id="flow_nw_truck.0" depart="1.00" departLane="n_t_0" departPos="5.10" departSpeed="10.70" departDelay="1.00" arrival="34.00" arrivalLane="t_w_0" arrivalPos="186.40" arrivalSpeed="13.42" duration="33.00" routeLength="376.73" waitingTime="0.00" waitingCount="0" stopTime="0.00" timeLoss="4.80" rerouteNo="0" devices="tripinfo_flow_nw_truck.0 fcd_flow_nw_truck.0" vType="truck" speedFactor="1.02" vaporized=""/>
    <tripinfo id="flow_se_truck.0" depart="1.00" departLane="s_t_0" departPos="5.10" departSpeed="12.72" departDelay="1.00" arrival="34.00" arrivalLane="t_e_0" arrivalPos="186.40" arrivalSpeed="12.57" duration="33.00" routeLength="376.73" waitingTime="0.00" waitingCount="0" stopTime="0.00" timeLoss="3.07" rerouteNo="0" devices="tripinfo_flow_se_truck.0 fcd_flow_se_truck.0" vType="truck" speedFactor="0.95" vaporized=""/>
    <tripinfo id="flow_ws_truck.0" depart="1.00" departLane="w_t_0" departPos="5.10" departSpeed="13.04" departDelay="1.00" arrival="34.00" arrivalLane="t_s_0" arrivalPos="186.40" arrivalSpeed="13.04" duration="33.00" routeLength="376.73" waitingTime="0.00" waitingCount="0" stopTime="0.00" timeLoss="3.51" rerouteNo="0" devices="tripinfo_flow_ws_truck.0 fcd_flow_ws_truck.0" vType="truck" speedFactor="0.94" vaporized=""/>
    <tripinfo id="flow_sw_car.0" depart="0.00" departLane="s_t_2" departPos="5.10" departSpeed="14.64" departDelay="0.00" arrival="35.00" arrivalLane="t_w_2" arrivalPos="186.40" arrivalSpeed="13.78" duration="35.00" routeLength="392.21" waitingTime="0.00" waitingCount="0" stopTime="0.00" timeLoss="7.10" rerouteNo="0" devices="tripinfo_flow_sw_car.0 fcd_flow_sw_car.0" vType="car" speedFactor="1.05" vaporized=""/>
    <tripinfo id="flow_ne_car.0" depart="0.00" departLane="n_t_2" departPos="5.10" departSpeed="12.27" departDelay="0.00" arrival="36.00" arrivalLane="t_e_2" arrivalPos="186.40" arrivalSpeed="11.50" duration="36.00" routeLength="392.21" waitingTime="0.00" waitingCount="0" stopTime="0.00" timeLoss="2.88" rerouteNo="0" devices="tripinfo_flow_ne_car.0 fcd_flow_ne_car.0" vType="car" speedFactor="0.88" vaporized=""/>
    <tripinfo id="flow_sw_truck.0" depart="1.00" departLane="s_t_2" departPos="5.10" departSpeed="11.50" departDelay="1.00" arrival="36.00" arrivalLane="t_w_2" arrivalPos="186.40" arrivalSpeed="15.74" duration="35.00" routeLength="392.21" waitingTime="0.00" waitingCount="0" stopTime="0.00" timeLoss="12.32" rerouteNo="0" devices="tripinfo_flow_sw_truck.0 fcd_flow_sw_truck.0" vType="truck" speedFactor="1.27" vaporized=""/>
    <tripinfo id="flow_en_truck.0" depart="1.00" departLane="e_t_0" departPos="5.10" departSpeed="12.30" departDelay="1.00" arrival="36.00" arrivalLane="t_n_0" arrivalPos="186.40" arrivalSpeed="11.34" duration="35.00" routeLength="376.73" waitingTime="0.00" waitingCount="0" stopTime="0.00" timeLoss="3.23" rerouteNo="0" devices="tripinfo_flow_en_truck.0 fcd_flow_en_truck.0" vType="truck" speedFactor="0.89" vaporized=""/>
    <tripinfo id="flow_ne_truck.0" depart="1.00" departLane="n_t_2" departPos="5.10" departSpeed="9.38" departDelay="1.00" arrival="38.00" arrivalLane="t_e_2" arrivalPos="186.40" arrivalSpeed="15.17" duration="37.00" routeLength="392.21" waitingTime="0.00" waitingCount="0" stopTime="0.00" timeLoss="11.22" rerouteNo="0" devices="tripinfo_flow_ne_truck.0 fcd_flow_ne_truck.0" vType="truck" speedFactor="1.16" vaporized=""/>
    <tripinfo id="flow_nw_car.1" depart="31.00" departLane="n_t_0" departPos="5.10" departSpeed="15.08" departDelay="0.75" arrival="60.00" arrivalLane="t_w_0" arrivalPos="186.40" arrivalSpeed="15.05" duration="29.00" routeLength="376.73" waitingTime="0.00" waitingCount="0" stopTime="0.00" timeLoss="3.08" rerouteNo="0" devices="tripinfo_flow_nw_car.1 fcd_flow_nw_car.1" vType="car" speedFactor="1.09" vaporized=""/>
    <tripinfo id="flow_se_car.1" depart="31.00" departLane="s_t_0" departPos="5.10" departSpeed="14.63" departDelay="0.75" arrival="61.00" arrivalLane="t_e_0" arrivalPos="186.40" arrivalSpeed="14.28" duration="30.00" routeLength="376.73" waitingTime="0.00" waitingCount="0" stopTime="0.00" timeLoss="3.17" rerouteNo="0" devices="tripinfo_flow_se_car.1 fcd_flow_se_car.1" vType="car" speedFactor="1.05" vaporized=""/>
    <tripinfo id="flow_ws_car.1" depart="31.00" departLane="w_t_0" departPos="5.10" departSpeed="13.70" departDelay="0.75" arrival="62.00" arrivalLane="t_s_0" arrivalPos="186.40" arrivalSpeed="12.68" duration="31.00" routeLength="376.73" waitingTime="0.00" waitingCount="0" stopTime="0.00" timeLoss="2.74" rerouteNo="0" devices="tripinfo_flow_ws_car.1 fcd_flow_ws_car.1" vType="car" speedFactor="0.99" vaporized=""/>
    <tripinfo id="flow_en_car.1" depart="31.00" departLane="e_t_0" departPos="5.10" departSpeed="14.30" departDelay="0.75" arrival="62.00" arrivalLane="t_n_0" arrivalPos="186.40" arrivalSpeed="13.48" duration="31.00" routeLength="376.73" waitingTime="0.00" waitingCount="0" stopTime="0.00" timeLoss="3.47" rerouteNo="0" devices="tripinfo_flow_en_car.1 fcd_flow_en_car.1" vType="car" speedFactor="1.03" vaporized=""/>
    <tripinfo id="flow_ne_car.1" depart="31.00" departLane="n_t_2" departPos="5.10" departSpeed="13.57" departDelay="0.75" arrival="63.00" arrivalLane="t_e_2" arrivalPos="186.40" arrivalSpeed="12.59" duration="32.00" routeLength="392.21" waitingTime="0.00" waitingCount="0" stopTime="0.00" timeLoss="2.21" rerouteNo="0" devices="tripinfo_flow_ne_car.1 fcd_flow_ne_car.1" vType="car" speedFactor="0.98" vaporized=""/>
    <tripinfo id="flow_sw_car.1" depart="31.00" departLane="s_t_2" departPos="5.10" departSpeed="14.38" departDelay="0.75" arrival="63.00" arrivalLane="t_w_2" arrivalPos="186.40" arrivalSpeed="13.19" duration="32.00" routeLength="392.21" waitingTime="0.00" waitingCount="0" stopTime="0.00" timeLoss="3.26" rerouteNo="0" devices="tripinfo_flow_sw_car.1 fcd_flow_sw_car.1" vType="car" speedFactor="1.03" vaporized=""/>
    <tripinfo id="flow_ws_car.2" depart="61.00" departLane="w_t_0" departPos="5.10" departSpeed="16.41" departDelay="0.50" arrival="88.00" arrivalLane="t_s_0" arrivalPos="186.40" arrivalSpeed="15.74" duration="27.00" routeLength="376.73" waitingTime="0.00" waitingCount="0" stopTime="0.00" timeLoss="3.05" rerouteNo="0" devices="tripinfo_flow_ws_car.2 fcd_flow_ws_car.2" vType="car" speedFactor="1.18" vaporized=""/>
    <tripinfo id="flow_wn_car.0" depart="0.00" departLane="w_t_2" departPos="5.10" departSpeed="14.68" departDelay="0.00" arrival="89.00" arrivalLane="t_n_2" arrivalPos="186.40" arrivalSpeed="13.82" duration="89.00" routeLength="392.21" waitingTime="55.00" waitingCount="1" stopTime="0.00" timeLoss="61.80" rerouteNo="0" devices="tripinfo_flow_wn_car.0 fcd_flow_wn_car.0" vType="car" speedFactor="1.06" vaporized=""/>
    <tripinfo id="flow_es_car.0" depart="0.00" departLane="e_t_2" departPos="5.10" departSpeed="13.97" departDelay="0.00" arrival="91.00" arrivalLane="t_s_2" arrivalPos="186.40" arrivalSpeed="13.96" duration="91.00" routeLength="392.21" waitingTime="55.00" waitingCount="1" stopTime="0.00" timeLoss="61.58" rerouteNo="0" devices="tripinfo_flow_es_car.0 fcd_flow_es_car.0" vType="car" speedFactor="1.01" vaporized=""/>
    <tripinfo id="flow_se_car.2" depart="61.00" departLane="s_t_0" departPos="5.10" departSpeed="14.00" departDelay="0.50" arrival="92.00" arrivalLane="t_e_0" arrivalPos="186.40" arrivalSpeed="13.50" duration="31.00" routeLength="376.73" waitingTime="0.00" waitingCount="0" stopTime="0.00" timeLoss="3.60" rerouteNo="0" devices="tripinfo_flow_se_car.2 fcd_flow_se_car.2" vType="car" speedFactor="1.01" vaporized=""/>
    <tripinfo id="flow_nw_car.2" depart="61.00" departLane="n_t_0" departPos="5.10" departSpeed="12.24" departDelay="0.50" arrival="96.00" arrivalLane="t_w_0" arrivalPos="186.40" arrivalSpeed="11.15" duration="35.00" routeLength="376.73" waitingTime="0.00" waitingCount="0" stopTime="0.00" timeLoss="3.55" rerouteNo="0" devices="tripinfo_flow_nw_car.2 fcd_flow_nw_car.2" vType="car" speedFactor="0.88" vaporized=""/>
    <tripinfo id="flow_es_truck.0" depart="1.00" departLane="e_t_2" departPos="5.10" departSpeed="10.41" departDelay="1.00" arrival="98.00" arrivalLane="t_s_1" arrivalPos="186.40" arrivalSpeed="10.03" duration="97.00" routeLength="392.21" waitingTime="50.00" waitingCount="1" stopTime="0.00" timeLoss="58.51" rerouteNo="0" devices="tripinfo_flow_es_truck.0 fcd_flow_es_truck.0" vType="truck" speedFactor="0.75" vaporized=""/>
    <tripinfo id="flow_es_car.1" depart="31.00" departLane="e_t_2" departPos="5.10" departSpeed="15.71" departDelay="0.75" arrival="98.00" arrivalLane="t_s_2" arrivalPos="186.40" arrivalSpeed="15.69" duration="67.00" routeLength="392.21" waitingTime="28.00" waitingCount="1" stopTime="0.00" timeLoss="41.58" rerouteNo="0" devices="tripinfo_flow_es_car.1 fcd_flow_es_car.1" vType="car" speedFactor="1.13" vaporized=""/>
    <tripinfo id="flow_en_car.2" depart="61.00" departLane="e_t_0" departPos="5.10" departSpeed="11.77" departDelay="0.50" arrival="98.00" arrivalLane="t_n_0" arrivalPos="186.40" arrivalSpeed="10.73" duration="37.00" routeLength="376.73" waitingTime="0.00" waitingCount="0" stopTime="0.00" timeLoss="3.60" rerouteNo="0" devices="tripinfo_flow_en_car.2 fcd_flow_en_car.2" vType="car" speedFactor="0.85" vaporized=""/>
    <tripinfo id="flow_wn_truck.0" depart="1.00" departLane="w_t_2" departPos="5.10" departSpeed="10.06" departDelay="1.00" arrival="99.00" arrivalLane="t_n_1" arrivalPos="186.40" arrivalSpeed="9.82" duration="98.00" routeLength="392.21" waitingTime="51.00" waitingCount="1" stopTime="0.00" timeLoss="58.23" rerouteNo="0" devices="tripinfo_flow_wn_truck.0 fcd_flow_wn_truck.0" vType="truck" speedFactor="0.72" vaporized=""/>
    <tripinfo id="flow_wn_car.1" depart="31.00" departLane="w_t_2" departPos="5.10" departSpeed="11.71" departDelay="0.75" arrival="100.00" arrivalLane="t_n_2" arrivalPos="186.40" arrivalSpeed="10.73" duration="69.00" routeLength="392.21" waitingTime="24.00" waitingCount="1" stopTime="0.00" timeLoss="34.43" rerouteNo="0" devices="tripinfo_flow_wn_car.1 fcd_flow_wn_car.1" vType="car" speedFactor="0.84" vaporized=""/>
    <tripinfo id="flow_wn_car.2" depart="61.00" departLane="w_t_2" departPos="5.10" departSpeed="12.21" departDelay="0.50" arrival="102.00" arrivalLane="t_n_2" arrivalPos="186.40" arrivalSpeed="11.20" duration="41.00" routeLength="392.21" waitingTime="0.00" waitingCount="0" stopTime="0.00" timeLoss="7.79" rerouteNo="0" devices="tripinfo_flow_wn_car.2 fcd_flow_wn_car.2" vType="car" speedFactor="0.88" vaporized=""/>
    <tripinfo id="flow_es_car.2" depart="61.00" departLane="e_t_2" departPos="5.10" departSpeed="10.40" departDelay="0.50" arrival="104.00" arrivalLane="t_s_1" arrivalPos="186.40" arrivalSpeed="9.38" duration="43.00" routeLength="392.21" waitingTime="0.00" waitingCount="0" stopTime="0.00" timeLoss="3.74" rerouteNo="0" devices="tripinfo_flow_es_car.2 fcd_flow_es_car.2" vType="car" speedFactor="0.75" vaporized=""/>
    <tripinfo id="flow_ne_car.2" depart="61.00" departLane="n_t_2" departPos="5.10" departSpeed="13.13" departDelay="0.50" arrival="106.00" arrivalLane="t_e_2" arrivalPos="186.40" arrivalSpeed="12.05" duration="45.00" routeLength="392.21" waitingTime="8.00" waitingCount="1" stopTime="0.00" timeLoss="14.09" rerouteNo="0" devices="tripinfo_flow_ne_car.2 fcd_flow_ne_car.2" vType="car" speedFactor="0.94" vaporized=""/>
    <tripinfo id="flow_sw_car.2" depart="61.00" departLane="s_t_2" departPos="5.10" departSpeed="12.35" departDelay="0.50" arrival="107.00" arrivalLane="t_w_2" arrivalPos="186.40" arrivalSpeed="12.14" duration="46.00" routeLength="392.21" waitingTime="7.00" waitingCount="1" stopTime="0.00" timeLoss="13.20" rerouteNo="0" devices="tripinfo_flow_sw_car.2 fcd_flow_sw_car.2" vType="car" speedFactor="0.89" vaporized=""/>
    <tripinfo id="flow_ws_car.3" depart="91.00" departLane="w_t_0" departPos="5.10" departSpeed="16.94" departDelay="0.24" arrival="118.00" arrivalLane="t_s_0" arrivalPos="186.40" arrivalSpeed="16.32" duration="27.00" routeLength="376.73" waitingTime="0.00" waitingCount="0" stopTime="0.00" timeLoss="3.40" rerouteNo="0" devices="tripinfo_flow_ws_car.3 fcd_flow_ws_car.3" vType="car" speedFactor="1.22" vaporized=""/>
    <tripinfo id="flow_en_car.3" depart="91.00" departLane="e_t_0" departPos="5.10" departSpeed="13.14" departDelay="0.24" arrival="124.00" arrivalLane="t_n_0" arrivalPos="186.40" arrivalSpeed="12.84" duration="33.00" routeLength="376.73" waitingTime="0.00" waitingCount="0" stopTime="0.00" timeLoss="3.32" rerouteNo="0" devices="tripinfo_flow_en_car.3 fcd_flow_en_car.3" vType="car" speedFactor="0.95" vaporized=""/>
    <tripinfo id="flow_sw_car.3" depart="91.00" departLane="s_t_2" departPos="5.10" departSpeed="13.23" departDelay="0.24" arrival="125.00" arrivalLane="t_w_2" arrivalPos="186.40" arrivalSpeed="12.41" duration="34.00" routeLength="392.21" waitingTime="0.00" waitingCount="0" stopTime="0.00" timeLoss="2.94" rerouteNo="0" devices="tripinfo_flow_sw_car.3 fcd_flow_sw_car.3" vType="car" speedFactor="0.95" vaporized=""/>
    <tripinfo id="flow_nw_car.3" depart="91.00" departLane="n_t_0" departPos="5.10" departSpeed="12.56" departDelay="0.24" arrival="126.00" arrivalLane="t_w_0" arrivalPos="186.40" arrivalSpeed="12.22" duration="35.00" routeLength="376.73" waitingTime="0.00" waitingCount="0" stopTime="0.00" timeLoss="3.82" rerouteNo="0" devices="tripinfo_flow_nw_car.3 fcd_flow_nw_car.3" vType="car" speedFactor="0.90" vaporized=""/>
    <tripinfo id="flow_ne_car.3" depart="91.00" departLane="n_t_2" departPos="5.10" departSpeed="12.88" departDelay="0.24" arrival="126.00" arrivalLane="t_e_2" arrivalPos="186.40" arrivalSpeed="12.71" duration="35.00" routeLength="392.21" waitingTime="0.00" waitingCount="0" stopTime="0.00" timeLoss="3.60" rerouteNo="0" devices="tripinfo_flow_ne_car.3 fcd_flow_ne_car.3" vType="car" speedFactor="0.93" vaporized=""/>
    <tripinfo id="flow_se_car.3" depart="91.00" departLane="s_t_0" departPos="5.10" departSpeed="12.26" departDelay="0.24" arrival="126.00" arrivalLane="t_e_0" arrivalPos="186.40" arrivalSpeed="11.46" duration="35.00" routeLength="376.73" waitingTime="0.00" waitingCount="0" stopTime="0.00" timeLoss="3.45" rerouteNo="0" devices="tripinfo_flow_se_car.3 fcd_flow_se_car.3" vType="car" speedFactor="0.88" vaporized=""/>
    <tripinfo id="flow_sw_car.4" depart="122.00" departLane="s_t_2" departPos="5.10" departSpeed="16.39" departDelay="0.99" arrival="149.00" arrivalLane="t_w_2" arrivalPos="186.40" arrivalSpeed="15.74" duration="27.00" routeLength="392.21" waitingTime="0.00" waitingCount="0" stopTime="0.00" timeLoss="2.42" rerouteNo="0" devices="tripinfo_flow_sw_car.4 fcd_flow_sw_car.4" vType="car" speedFactor="1.18" vaporized=""/>
    <tripinfo id="flow_ws_car.4" depart="122.00" departLane="w_t_0" departPos="5.10" departSpeed="14.34" departDelay="0.99" arrival="152.00" arrivalLane="t_s_0" arrivalPos="186.40" arrivalSpeed="14.22" duration="30.00" routeLength="376.73" waitingTime="0.00" waitingCount="0" stopTime="0.00" timeLoss="2.61" rerouteNo="0" devices="tripinfo_flow_ws_car.4 fcd_flow_ws_car.4" vType="car" speedFactor="1.03" vaporized=""/>
    <tripinfo id="flow_en_car.4" depart="122.00" departLane="e_t_0" departPos="5.10" departSpeed="14.53" departDelay="0.99" arrival="152.00" arrivalLane="t_n_0" arrivalPos="186.40" arrivalSpeed="13.30" duration="30.00" routeLength="376.73" waitingTime="0.00" waitingCount="0" stopTime="0.00" timeLoss="3.03" rerouteNo="0" devices="tripinfo_flow_en_car.4 fcd_flow_en_car.4" vType="car" speedFactor="1.05" vaporized=""/>
    <tripinfo id="flow_se_car.4" depart="122.00" departLane="s_t_0" departPos="5.10" departSpeed="14.16" departDelay="0.99" arrival="153.00" arrivalLane="t_e_0" arrivalPos="186.40" arrivalSpeed="13.00" duration="31.00" routeLength="376.73" waitingTime="0.00" waitingCount="0" stopTime="0.00" timeLoss="3.39" rerouteNo="0" devices="tripinfo_flow_se_car.4 fcd_flow_se_car.4" vType="car" speedFactor="1.02" vaporized=""/>
    <tripinfo id="flow_nw_car.4" depart="122.00" departLane="n_t_0" departPos="5.10" departSpeed="12.89" departDelay="0.99" arrival="155.00" arrivalLane="t_w_0" arrivalPos="186.40" arrivalSpeed="12.77" duration="33.00" routeLength="376.73" waitingTime="0.00" waitingCount="0" stopTime="0.00" timeLoss="2.86" rerouteNo="0" devices="tripinfo_flow_nw_car.4 fcd_flow_nw_car.4" vType="car" speedFactor="0.93" vaporized=""/>
    <tripinfo id="flow_ne_car.4" depart="122.00" departLane="n_t_2" departPos="5.10" departSpeed="13.40" departDelay="0.99" arrival="156.00" arrivalLane="t_e_2" arrivalPos="186.40" arrivalSpeed="13.08" duration="34.00" routeLength="392.21" waitingTime="0.00" waitingCount="0" stopTime="0.00" timeLoss="3.26" rerouteNo="0" devices="tripinfo_flow_ne_car.4 fcd_flow_ne_car.4" vType="car" speedFactor="0.96" vaporized=""/>
    <tripinfo id="flow_se_car.5" depart="152.00" departLane="s_t_0" departPos="5.10" departSpeed="16.43" departDelay="0.74" arrival="179.00" arrivalLane="t_e_0" arrivalPos="186.40" arrivalSpeed="16.03" duration="27.00" routeLength="376.73" waitingTime="0.00" waitingCount="0" stopTime="0.00" timeLoss="3.37" rerouteNo="0" devices="tripinfo_flow_se_car.5 fcd_flow_se_car.5" vType="car" speedFactor="1.18" vaporized=""/>
    <tripinfo id="flow_en_car.5" depart="152.00" departLane="e_t_0" departPos="5.10" departSpeed="15.80" departDelay="0.74" arrival="180.00" arrivalLane="t_n_0" arrivalPos="186.40" arrivalSpeed="14.65" duration="28.00" routeLength="376.73" waitingTime="0.00" waitingCount="0" stopTime="0.00" timeLoss="3.14" rerouteNo="0" devices="tripinfo_flow_en_car.5 fcd_flow_en_car.5" vType="car" speedFactor="1.14" vaporized=""/>
    <tripinfo id="flow_sw_car.5" depart="152.00" departLane="s_t_2" departPos="5.10" departSpeed="15.41" departDelay="0.74" arrival="181.00" arrivalLane="t_w_2" arrivalPos="186.40" arrivalSpeed="14.29" duration="29.00" routeLength="392.21" waitingTime="0.00" waitingCount="0" stopTime="0.00" timeLoss="2.98" rerouteNo="0" devices="tripinfo_flow_sw_car.5 fcd_flow_sw_car.5" vType="car" speedFactor="1.11" vaporized=""/>
    <tripinfo id="flow_ws_car.5" depart="152.00" departLane="w_t_0" departPos="5.10" departSpeed="12.77" departDelay="0.74" arrival="185.00" arrivalLane="t_s_0" arrivalPos="186.40" arrivalSpeed="12.39" duration="33.00" routeLength="376.73" waitingTime="0.00" waitingCount="0" stopTime="0.00" timeLoss="3.01" rerouteNo="0" devices="tripinfo_flow_ws_car.5 fcd_flow_ws_car.5" vType="car" speedFactor="0.92" vaporized=""/>
    <tripinfo id="flow_nw_car.5" depart="152.00" departLane="n_t_0" departPos="5.10" departSpeed="12.63" departDelay="0.74" arrival="186.00" arrivalLane="t_w_0" arrivalPos="186.40" arrivalSpeed="12.08" duration="34.00" routeLength="376.73" waitingTime="0.00" waitingCount="0" stopTime="0.00" timeLoss="3.28" rerouteNo="0" devices="tripinfo_flow_nw_car.5 fcd_flow_nw_car.5" vType="car" speedFactor="0.91" vaporized=""/>
    <tripinfo id="flow_ne_car.5" depart="152.00" departLane="n_t_2" departPos="5.10" departSpeed="12.20" departDelay="0.74" arrival="188.00" arrivalLane="t_e_2" arrivalPos="186.40" arrivalSpeed="11.13" duration="36.00" routeLength="392.21" waitingTime="0.00" waitingCount="0" stopTime="0.00" timeLoss="2.98" rerouteNo="0" devices="tripinfo_flow_ne_car.5 fcd_flow_ne_car.5" vType="car" speedFactor="0.88" vaporized=""/>
    <tripinfo id="flow_en_truck.1" depart="172.00" departLane="e_t_0" departPos="5.10" departSpeed="16.23" departDelay="0.57" arrival="199.00" arrivalLane="t_n_0" arrivalPos="186.40" arrivalSpeed="15.52" duration="27.00" routeLength="376.73" waitingTime="0.00" waitingCount="0" stopTime="0.00" timeLoss="2.88" rerouteNo="0" devices="tripinfo_flow_en_truck.1 fcd_flow_en_truck.1" vType="truck" speedFactor="1.17" vaporized=""/>
    <tripinfo id="flow_ws_truck.1" depart="172.00" departLane="w_t_0" departPos="5.10" departSpeed="14.94" departDelay="0.57" arrival="201.00" arrivalLane="t_s_0" arrivalPos="186.40" arrivalSpeed="13.65" duration="29.00" routeLength="376.73" waitingTime="0.00" waitingCount="0" stopTime="0.00" timeLoss="3.19" rerouteNo="0" devices="tripinfo_flow_ws_truck.1 fcd_flow_ws_truck.1" vType="truck" speedFactor="1.08" vaporized=""/>
    <tripinfo id="flow_ne_truck.1" depart="172.00" departLane="n_t_2" departPos="5.10" departSpeed="14.31" departDelay="0.57" arrival="203.00" arrivalLane="t_e_2" arrivalPos="186.40" arrivalSpeed="13.11" duration="31.00" routeLength="392.21" waitingTime="0.00" waitingCount="0" stopTime="0.00" timeLoss="2.85" rerouteNo="0" devices="tripinfo_flow_ne_truck.1 fcd_flow_ne_truck.1" vType="truck" speedFactor="1.03" vaporized=""/>
    <tripinfo id="flow_sw_truck.1" depart="172.00" departLane="s_t_2" departPos="5.10" departSpeed="14.38" departDelay="0.57" arrival="203.00" arrivalLane="t_w_2" arrivalPos="186.40" arrivalSpeed="13.72" duration="31.00" routeLength="392.21" waitingTime="0.00" waitingCount="0" stopTime="0.00" timeLoss="2.81" rerouteNo="0" devices="tripinfo_flow_sw_truck.1 fcd_flow_sw_truck.1" vType="truck" speedFactor="1.04" vaporized=""/>
    <tripinfo id="flow_nw_truck.1" depart="172.00" departLane="n_t_0" departPos="5.10" departSpeed="13.56" departDelay="0.57" arrival="204.00" arrivalLane="t_w_0" arrivalPos="186.40" arrivalSpeed="13.27" duration="32.00" routeLength="376.73" waitingTime="0.00" waitingCount="0" stopTime="0.00" timeLoss="3.20" rerouteNo="0" devices="tripinfo_flow_nw_truck.1 fcd_flow_nw_truck.1" vType="truck" speedFactor="0.98" vaporized=""/>
    <tripinfo id="flow_se_truck.1" depart="172.00" departLane="s_t_0" departPos="5.10" departSpeed="12.83" departDelay="0.57" arrival="205.00" arrivalLane="t_e_0" arrivalPos="186.40" arrivalSpeed="11.96" duration="33.00" routeLength="376.73" waitingTime="0.00" waitingCount="0" stopTime="0.00" timeLoss="3.02" rerouteNo="0" devices="tripinfo_flow_se_truck.1 fcd_flow_se_truck.1" vType="truck" speedFactor="0.92" vaporized=""/>
    <tripinfo id="flow_nw_car.6" depart="182.00" departLane="n_t_0" departPos="5.10" departSpeed="16.17" departDelay="0.49" arrival="209.00" arrivalLane="t_w_0" arrivalPos="186.40" arrivalSpeed="15.59" duration="27.00" routeLength="376.73" waitingTime="0.00" waitingCount="0" stopTime="0.00" timeLoss="2.81" rerouteNo="0" devices="tripinfo_flow_nw_car.6 fcd_flow_nw_car.6" vType="car" speedFactor="1.16" vaporized=""/>
    <tripinfo id="flow_ws_car.6" depart="182.00" departLane="w_t_0" departPos="5.10" departSpeed="13.63" departDelay="0.49" arrival="213.00" arrivalLane="t_s_0" arrivalPos="186.40" arrivalSpeed="13.09" duration="31.00" routeLength="376.73" waitingTime="0.00" waitingCount="0" stopTime="0.00" timeLoss="2.74" rerouteNo="0" devices="tripinfo_flow_ws_car.6 fcd_flow_ws_car.6" vType="car" speedFactor="0.98" vaporized=""/>
    <tripinfo id="flow_en_car.6" depart="182.00" departLane="e_t_0" departPos="5.10" departSpeed="13.51" departDelay="0.49" arrival="214.00" arrivalLane="t_n_0" arrivalPos="186.40" arrivalSpeed="13.17" duration="32.00" routeLength="376.73" waitingTime="0.00" waitingCount="0" stopTime="0.00" timeLoss="2.90" rerouteNo="0" devices="tripinfo_flow_en_car.6 fcd_flow_en_car.6" vType="car" speedFactor="0.97" vaporized=""/>
    <tripinfo id="flow_sw_car.6" depart="182.00" departLane="s_t_2" departPos="5.10" departSpeed="13.36" departDelay="0.49" arrival="216.00" arrivalLane="t_w_2" arrivalPos="186.40" arrivalSpeed="12.63" duration="34.00" routeLength="392.21" waitingTime="0.00" waitingCount="0" stopTime="0.00" timeLoss="3.18" rerouteNo="0" devices="tripinfo_flow_sw_car.6 fcd_flow_sw_car.6" vType="car" speedFactor="0.96" vaporized=""/>
    <tripinfo id="flow_se_car.6" depart="182.00" departLane="s_t_0" departPos="5.10" departSpeed="12.52" departDelay="0.49" arrival="217.00" arrivalLane="t_e_0" arrivalPos="186.40" arrivalSpeed="12.38" duration="35.00" routeLength="376.73" waitingTime="0.00" waitingCount="0" stopTime="0.00" timeLoss="3.95" rerouteNo="0" devices="tripinfo_flow_se_car.6 fcd_flow_se_car.6" vType="car" speedFactor="0.90" vaporized=""/>
    <tripinfo id="flow_ne_car.6" depart="182.00" departLane="n_t_2" departPos="5.10" departSpeed="12.20" departDelay="0.49" arrival="218.00" arrivalLane="t_e_2" arrivalPos="186.40" arrivalSpeed="10.94" duration="36.00" routeLength="392.21" waitingTime="0.00" waitingCount="0" stopTime="0.00" timeLoss="2.92" rerouteNo="0" devices="tripinfo_flow_ne_car.6 fcd_flow_ne_car.6" vType="car" speedFactor="0.88" vaporized=""/>
    <tripinfo id="flow_es_car.3" depart="91.00" departLane="e_t_2" departPos="5.10" departSpeed="12.69" departDelay="0.24" arrival="232.00" arrivalLane="t_s_2" arrivalPos="186.40" arrivalSpeed="11.65" duration="141.00" routeLength="392.21" waitingTime="103.00" waitingCount="1" stopTime="0.00" timeLoss="108.90" rerouteNo="0" devices="tripinfo_flow_es_car.3 fcd_flow_es_car.3" vType="car" speedFactor="0.91" vaporized=""/>
    <tripinfo id="flow_es_car.4" depart="122.00" departLane="e_t_2" departPos="5.10" departSpeed="12.65" departDelay="0.99" arrival="234.00" arrivalLane="t_s_2" arrivalPos="186.40" arrivalSpeed="11.93" duration="112.00" routeLength="392.21" waitingTime="72.00" waitingCount="1" stopTime="0.00" timeLoss="79.61" rerouteNo="0" devices="tripinfo_flow_es_car.4 fcd_flow_es_car.4" vType="car" speedFactor="0.91" vaporized=""/>
