<?xml version="1.0" encoding="UTF-8"?>

<!-- generated on 2025-08-18 17:10:14 by Eclipse SUMO GUI Version 1.16.0
<configuration xmlns:xsi="http://www.w3.org/2001/XMLSchema-instance" xsi:noNamespaceSchemaLocation="http://sumo.dlr.de/xsd/sumoConfiguration.xsd">

    <input>
        <net-file value="E:\txw\sumo-rl\nets\syc\1x1\Eq_350_BC_Wstr_Estr-Wleft_Eleft\Eq_140_40-60-20-80-Bus-Car\syc_4phases.net.xml"/>
        <route-files value="E:\txw\sumo-rl\nets\syc\1x1\Eq_350_BC_Wstr_Estr-Wleft_Eleft\Eq_140_40-60-20-80-Bus-Car\Eq_140_40-60-20-80-Bus-Car.rou.xml"/>
        <additional-files value="E:\txw\sumo-rl\nets\syc\1x1\Eq_350_BC_Wstr_Estr-Wleft_Eleft\Eq_140_40-60-20-80-Bus-Car\1x1_outputs.add.xml"/>
    </input>

    <output>
        <fcd-output value="E:\txw\sumo-rl\nets\syc\1x1\Eq_350_BC_Wstr_Estr-Wleft_Eleft\Eq_140_40-60-20-80-Bus-Car\output/fcd_output.xml"/>
        <tripinfo-output value="E:\txw\sumo-rl\nets\syc\1x1\Eq_350_BC_Wstr_Estr-Wleft_Eleft\Eq_140_40-60-20-80-Bus-Car\output/tripinfo.out.xml"/>
    </output>

    <time>
        <begin value="0"/>
        <end value="1000"/>
    </time>

</configuration>
-->

<meandata xmlns:xsi="http://www.w3.org/2001/XMLSchema-instance" xsi:noNamespaceSchemaLocation="http://sumo.dlr.de/xsd/meandata_file.xsd">
    <interval begin="0.00" end="10.00" id="1">
        <edge id="e_t" sampledSeconds="19.00" traveltime="26.42" overlapTraveltime="27.13" density="10.19" laneDensity="3.40" occupancy="1.70" waitingTime="0.00" timeLoss="9.45" speed="7.06" speedRelative="0.51" departed="4" arrived="0" entered="0" left="0" laneChangedFrom="3" laneChangedTo="3"/>
        <edge id="n_t" sampledSeconds="18.00" traveltime="24.82" overlapTraveltime="25.49" density="9.66" laneDensity="3.22" occupancy="1.61" waitingTime="0.00" timeLoss="8.90" speed="7.51" speedRelative="0.54" departed="3" arrived="0" entered="0" left="0" laneChangedFrom="3" laneChangedTo="3"/>
        <edge id="s_t" sampledSeconds="19.00" traveltime="25.01" overlapTraveltime="25.69" density="10.19" laneDensity="3.40" occupancy="1.70" waitingTime="0.00" timeLoss="9.17" speed="7.45" speedRelative="0.54" departed="3" arrived="0" entered="0" left="0" laneChangedFrom="3" laneChangedTo="3"/>
        <edge id="t_e" sampledSeconds="0.00" departed="0" arrived="0" entered="0" left="0" laneChangedFrom="0" laneChangedTo="0"/>
        <edge id="t_n" sampledSeconds="0.00" departed="0" arrived="0" entered="0" left="0" laneChangedFrom="0" laneChangedTo="0"/>
        <edge id="t_s" sampledSeconds="0.00" departed="0" arrived="0" entered="0" left="0" laneChangedFrom="0" laneChangedTo="0"/>
        <edge id="t_w" sampledSeconds="0.00" departed="0" arrived="0" entered="0" left="0" laneChangedFrom="0" laneChangedTo="0"/>
        <edge id="w_t" sampledSeconds="19.00" traveltime="26.01" overlapTraveltime="26.71" density="10.19" laneDensity="3.40" occupancy="1.70" waitingTime="0.00" timeLoss="9.50" speed="7.17" speedRelative="0.52" departed="4" arrived="0" entered="0" left="0" laneChangedFrom="3" laneChangedTo="3"/>
    </interval>
    <interval begin="10.00" end="20.00" id="1">
        <edge id="e_t" sampledSeconds="45.90" traveltime="16.68" overlapTraveltime="17.10" density="24.62" laneDensity="8.21" occupancy="4.09" waitingTime="0.00" timeLoss="7.43" speed="11.19" speedRelative="0.81" departed="1" arrived="0" entered="0" left="1" laneChangedFrom="3" laneChangedTo="3"/>
        <edge id="n_t" sampledSeconds="30.00" traveltime="15.94" overlapTraveltime="16.36" density="16.09" laneDensity="5.36" occupancy="2.68" waitingTime="1.00" timeLoss="5.66" speed="11.70" speedRelative="0.84" departed="0" arrived="0" entered="0" left="0" laneChangedFrom="0" laneChangedTo="0"/>
        <edge id="s_t" sampledSeconds="30.00" traveltime="15.85" overlapTraveltime="16.27" density="16.09" laneDensity="5.36" occupancy="2.68" waitingTime="0.00" timeLoss="5.19" speed="11.76" speedRelative="0.85" departed="0" arrived="0" entered="0" left="0" laneChangedFrom="0" laneChangedTo="0"/>
        <edge id="t_e" sampledSeconds="0.60" traveltime="14.42" overlapTraveltime="14.81" density="0.32" laneDensity="0.11" occupancy="0.04" waitingTime="0.00" timeLoss="0.05" speed="12.93" speedRelative="0.93" departed="0" arrived="0" entered="1" left="0" laneChangedFrom="0" laneChangedTo="0"/>
        <edge id="t_n" sampledSeconds="0.00" departed="0" arrived="0" entered="0" left="0" laneChangedFrom="0" laneChangedTo="0"/>
        <edge id="t_s" sampledSeconds="0.00" departed="0" arrived="0" entered="0" left="0" laneChangedFrom="0" laneChangedTo="0"/>
        <edge id="t_w" sampledSeconds="0.53" traveltime="13.24" overlapTraveltime="13.60" density="0.28" laneDensity="0.09" occupancy="0.03" waitingTime="0.00" timeLoss="0.02" speed="14.08" speedRelative="1.01" departed="0" arrived="0" entered="1" left="0" laneChangedFrom="0" laneChangedTo="0"/>
        <edge id="w_t" sampledSeconds="46.73" traveltime="16.09" overlapTraveltime="16.50" density="25.07" laneDensity="8.36" occupancy="4.16" waitingTime="0.00" timeLoss="7.21" speed="11.60" speedRelative="0.84" departed="1" arrived="0" entered="0" left="2" laneChangedFrom="3" laneChangedTo="3"/>
    </interval>
    <interval begin="20.00" end="30.00" id="1">
        <edge id="e_t" sampledSeconds="34.43" traveltime="23.29" overlapTraveltime="23.84" density="18.47" laneDensity="6.16" occupancy="3.05" waitingTime="4.00" timeLoss="12.09" speed="8.03" speedRelative="0.58" departed="1" arrived="0" entered="0" left="2" laneChangedFrom="0" laneChangedTo="0"/>
        <edge id="n_t" sampledSeconds="27.98" traveltime="78.27" overlapTraveltime="77.17" density="15.01" laneDensity="5.00" occupancy="2.46" waitingTime="17.00" timeLoss="22.51" speed="2.48" speedRelative="0.18" departed="2" arrived="0" entered="0" left="1" laneChangedFrom="0" laneChangedTo="0"/>
        <edge id="s_t" sampledSeconds="28.05" traveltime="86.64" overlapTraveltime="84.84" density="15.05" laneDensity="5.02" occupancy="2.47" waitingTime="17.00" timeLoss="22.88" speed="2.26" speedRelative="0.16" departed="2" arrived="0" entered="0" left="1" laneChangedFrom="0" laneChangedTo="0"/>
        <edge id="t_e" sampledSeconds="22.33" traveltime="14.14" overlapTraveltime="14.51" density="11.98" laneDensity="3.99" occupancy="1.95" waitingTime="0.00" timeLoss="1.63" speed="13.19" speedRelative="0.95" departed="0" arrived="0" entered="2" left="0" laneChangedFrom="0" laneChangedTo="0"/>
        <edge id="t_n" sampledSeconds="0.00" departed="0" arrived="0" entered="0" left="0" laneChangedFrom="0" laneChangedTo="0"/>
        <edge id="t_s" sampledSeconds="0.00" departed="0" arrived="0" entered="0" left="0" laneChangedFrom="0" laneChangedTo="0"/>
        <edge id="t_w" sampledSeconds="21.08" traveltime="14.90" overlapTraveltime="15.30" density="11.31" laneDensity="3.77" occupancy="1.83" waitingTime="0.00" timeLoss="2.25" speed="12.51" speedRelative="0.90" departed="0" arrived="0" entered="2" left="0" laneChangedFrom="0" laneChangedTo="0"/>
        <edge id="w_t" sampledSeconds="33.32" traveltime="26.12" overlapTraveltime="26.56" density="17.87" laneDensity="5.96" occupancy="2.96" waitingTime="7.00" timeLoss="14.12" speed="7.21" speedRelative="0.52" departed="1" arrived="0" entered="0" left="0" laneChangedFrom="0" laneChangedTo="0"/>
    </interval>
    <interval begin="30.00" end="40.00" id="1">
        <edge id="e_t" sampledSeconds="36.37" traveltime="40.97" overlapTraveltime="42.61" density="19.51" laneDensity="6.50" occupancy="3.18" waitingTime="17.00" timeLoss="22.53" speed="4.49" speedRelative="0.32" departed="1" arrived="0" entered="0" left="1" laneChangedFrom="2" laneChangedTo="2"/>
        <edge id="n_t" sampledSeconds="47.00" traveltime="34.61" overlapTraveltime="35.53" density="25.21" laneDensity="8.40" occupancy="4.20" waitingTime="20.00" timeLoss="28.22" speed="5.39" speedRelative="0.39" departed="1" arrived="0" entered="0" left="0" laneChangedFrom="3" laneChangedTo="3"/>
        <edge id="s_t" sampledSeconds="48.00" traveltime="31.38" overlapTraveltime="32.22" density="25.75" laneDensity="8.58" occupancy="4.29" waitingTime="20.00" timeLoss="28.25" speed="5.94" speedRelative="0.43" departed="1" arrived="0" entered="0" left="0" laneChangedFrom="3" laneChangedTo="3"/>
        <edge id="t_e" sampledSeconds="19.04" traveltime="14.67" overlapTraveltime="15.01" density="10.21" laneDensity="3.40" occupancy="1.67" waitingTime="0.00" timeLoss="1.33" speed="12.75" speedRelative="0.92" departed="0" arrived="2" entered="0" left="0" laneChangedFrom="0" laneChangedTo="0"/>
        <edge id="t_n" sampledSeconds="8.93" traveltime="17.50" overlapTraveltime="17.97" density="4.79" laneDensity="1.60" occupancy="0.75" waitingTime="0.00" timeLoss="1.63" speed="10.65" speedRelative="0.77" departed="0" arrived="0" entered="1" left="0" laneChangedFrom="0" laneChangedTo="0"/>
        <edge id="t_s" sampledSeconds="8.10" traveltime="17.86" overlapTraveltime="18.34" density="4.34" laneDensity="1.45" occupancy="0.69" waitingTime="0.00" timeLoss="1.00" speed="10.44" speedRelative="0.75" departed="0" arrived="0" entered="1" left="0" laneChangedFrom="0" laneChangedTo="0"/>
        <edge id="t_w" sampledSeconds="21.74" traveltime="14.44" overlapTraveltime="14.82" density="11.66" laneDensity="3.89" occupancy="1.92" waitingTime="0.00" timeLoss="1.10" speed="12.92" speedRelative="0.93" departed="0" arrived="2" entered="0" left="0" laneChangedFrom="0" laneChangedTo="0"/>
        <edge id="w_t" sampledSeconds="37.17" traveltime="40.30" overlapTraveltime="42.00" density="19.94" laneDensity="6.65" occupancy="3.24" waitingTime="17.00" timeLoss="23.39" speed="4.56" speedRelative="0.33" departed="1" arrived="0" entered="0" left="2" laneChangedFrom="2" laneChangedTo="2"/>
    </interval>
    <interval begin="40.00" end="50.00" id="1">
        <edge id="e_t" sampledSeconds="24.93" traveltime="21.07" overlapTraveltime="22.15" density="13.37" laneDensity="4.46" occupancy="2.14" waitingTime="0.00" timeLoss="5.95" speed="8.64" speedRelative="0.62" departed="1" arrived="0" entered="0" left="2" laneChangedFrom="1" laneChangedTo="1"/>
        <edge id="n_t" sampledSeconds="50.00" traveltime="35.22" overlapTraveltime="36.17" density="26.82" laneDensity="8.94" occupancy="4.47" waitingTime="25.00" timeLoss="30.58" speed="5.29" speedRelative="0.38" departed="0" arrived="0" entered="0" left="0" laneChangedFrom="0" laneChangedTo="0"/>
        <edge id="s_t" sampledSeconds="50.00" traveltime="40.59" overlapTraveltime="41.68" density="26.82" laneDensity="8.94" occupancy="4.47" waitingTime="28.00" timeLoss="32.81" speed="4.59" speedRelative="0.33" departed="0" arrived="0" entered="0" left="0" laneChangedFrom="0" laneChangedTo="0"/>
        <edge id="t_e" sampledSeconds="2.00" traveltime="14.86" overlapTraveltime="15.24" density="1.07" laneDensity="0.36" occupancy="0.18" waitingTime="0.00" timeLoss="0.05" speed="12.56" speedRelative="0.90" departed="0" arrived="1" entered="0" left="0" laneChangedFrom="0" laneChangedTo="0"/>
        <edge id="t_n" sampledSeconds="22.97" traveltime="15.59" overlapTraveltime="16.00" density="12.32" laneDensity="4.11" occupancy="1.96" waitingTime="0.00" timeLoss="2.23" speed="11.96" speedRelative="0.86" departed="0" arrived="1" entered="3" left="0" laneChangedFrom="0" laneChangedTo="0"/>
        <edge id="t_s" sampledSeconds="24.80" traveltime="16.31" overlapTraveltime="16.75" density="13.31" laneDensity="4.44" occupancy="2.11" waitingTime="0.00" timeLoss="2.45" speed="11.43" speedRelative="0.82" departed="0" arrived="1" entered="3" left="0" laneChangedFrom="0" laneChangedTo="0"/>
        <edge id="t_w" sampledSeconds="1.64" traveltime="14.49" overlapTraveltime="14.66" density="0.88" laneDensity="0.29" occupancy="0.13" waitingTime="0.00" timeLoss="0.09" speed="13.05" speedRelative="0.94" departed="0" arrived="1" entered="0" left="0" laneChangedFrom="0" laneChangedTo="0"/>
        <edge id="w_t" sampledSeconds="25.01" traveltime="20.39" overlapTraveltime="21.54" density="13.42" laneDensity="4.47" occupancy="2.14" waitingTime="0.00" timeLoss="6.55" speed="8.88" speedRelative="0.64" departed="1" arrived="0" entered="0" left="2" laneChangedFrom="1" laneChangedTo="1"/>
    </interval>
    <interval begin="50.00" end="60.00" id="1">
        <edge id="e_t" sampledSeconds="21.08" traveltime="18.13" overlapTraveltime="18.71" density="11.31" laneDensity="3.77" occupancy="1.86" waitingTime="0.00" timeLoss="4.40" speed="10.23" speedRelative="0.74" departed="1" arrived="0" entered="0" left="1" laneChangedFrom="0" laneChangedTo="0"/>
        <edge id="n_t" sampledSeconds="53.88" traveltime="122.28" overlapTraveltime="120.02" density="28.90" laneDensity="9.63" occupancy="4.78" waitingTime="40.00" timeLoss="47.82" speed="1.59" speedRelative="0.11" departed="3" arrived="0" entered="0" left="1" laneChangedFrom="3" laneChangedTo="3"/>
        <edge id="s_t" sampledSeconds="54.17" traveltime="111.71" overlapTraveltime="110.48" density="29.06" laneDensity="9.69" occupancy="4.80" waitingTime="40.00" timeLoss="47.68" speed="1.73" speedRelative="0.12" departed="3" arrived="0" entered="0" left="1" laneChangedFrom="3" laneChangedTo="3"/>
        <edge id="t_e" sampledSeconds="8.03" traveltime="17.59" overlapTraveltime="18.06" density="4.31" laneDensity="1.44" occupancy="0.68" waitingTime="0.00" timeLoss="1.14" speed="10.60" speedRelative="0.76" departed="0" arrived="0" entered="1" left="0" laneChangedFrom="0" laneChangedTo="0"/>
        <edge id="t_n" sampledSeconds="31.72" traveltime="15.55" overlapTraveltime="15.94" density="17.02" laneDensity="5.67" occupancy="2.79" waitingTime="0.00" timeLoss="1.82" speed="12.01" speedRelative="0.86" departed="0" arrived="1" entered="1" left="0" laneChangedFrom="0" laneChangedTo="0"/>
        <edge id="t_s" sampledSeconds="30.42" traveltime="15.63" overlapTraveltime="16.02" density="16.32" laneDensity="5.44" occupancy="2.68" waitingTime="0.00" timeLoss="1.77" speed="11.94" speedRelative="0.86" departed="0" arrived="1" entered="1" left="0" laneChangedFrom="0" laneChangedTo="0"/>
        <edge id="t_w" sampledSeconds="8.40" traveltime="17.27" overlapTraveltime="17.73" density="4.51" laneDensity="1.50" occupancy="0.71" waitingTime="0.00" timeLoss="1.70" speed="10.80" speedRelative="0.78" departed="0" arrived="0" entered="1" left="0" laneChangedFrom="0" laneChangedTo="0"/>
        <edge id="w_t" sampledSeconds="20.01" traveltime="18.43" overlapTraveltime="19.02" density="10.74" laneDensity="3.58" occupancy="1.76" waitingTime="0.00" timeLoss="4.24" speed="10.06" speedRelative="0.72" departed="1" arrived="0" entered="0" left="1" laneChangedFrom="0" laneChangedTo="0"/>
    </interval>
    <interval begin="60.00" end="70.00" id="1">
        <edge id="e_t" sampledSeconds="24.82" traveltime="26.09" overlapTraveltime="26.89" density="13.32" laneDensity="4.44" occupancy="2.18" waitingTime="6.00" timeLoss="12.64" speed="7.12" speedRelative="0.51" departed="2" arrived="0" entered="0" left="1" laneChangedFrom="1" laneChangedTo="1"/>
        <edge id="n_t" sampledSeconds="70.00" traveltime="36.93" overlapTraveltime="37.92" density="37.55" laneDensity="12.52" occupancy="6.26" waitingTime="40.00" timeLoss="45.77" speed="5.05" speedRelative="0.36" departed="0" arrived="0" entered="0" left="0" laneChangedFrom="0" laneChangedTo="0"/>
        <edge id="s_t" sampledSeconds="70.00" traveltime="36.15" overlapTraveltime="37.12" density="37.55" laneDensity="12.52" occupancy="6.26" waitingTime="42.00" timeLoss="46.64" speed="5.16" speedRelative="0.37" departed="0" arrived="0" entered="0" left="0" laneChangedFrom="0" laneChangedTo="0"/>
        <edge id="t_e" sampledSeconds="9.00" traveltime="16.13" overlapTraveltime="16.56" density="4.83" laneDensity="1.61" occupancy="0.80" waitingTime="0.00" timeLoss="0.58" speed="11.56" speedRelative="0.83" departed="0" arrived="1" entered="0" left="0" laneChangedFrom="0" laneChangedTo="0"/>
        <edge id="t_n" sampledSeconds="15.73" traveltime="16.19" overlapTraveltime="16.63" density="8.44" laneDensity="2.81" occupancy="1.37" waitingTime="0.00" timeLoss="0.84" speed="11.51" speedRelative="0.83" departed="0" arrived="2" entered="0" left="0" laneChangedFrom="0" laneChangedTo="0"/>
        <edge id="t_s" sampledSeconds="15.85" traveltime="16.57" overlapTraveltime="16.99" density="8.50" laneDensity="2.83" occupancy="1.39" waitingTime="0.00" timeLoss="0.69" speed="11.26" speedRelative="0.81" departed="0" arrived="2" entered="0" left="0" laneChangedFrom="0" laneChangedTo="0"/>
        <edge id="t_w" sampledSeconds="7.88" traveltime="14.61" overlapTraveltime="14.99" density="4.23" laneDensity="1.41" occupancy="0.69" waitingTime="0.00" timeLoss="0.45" speed="12.77" speedRelative="0.92" departed="0" arrived="1" entered="0" left="0" laneChangedFrom="0" laneChangedTo="0"/>
        <edge id="w_t" sampledSeconds="25.00" traveltime="27.60" overlapTraveltime="28.34" density="13.41" laneDensity="4.47" occupancy="2.24" waitingTime="6.00" timeLoss="12.31" speed="6.75" speedRelative="0.49" departed="2" arrived="0" entered="0" left="0" laneChangedFrom="1" laneChangedTo="1"/>
    </interval>
    <interval begin="70.00" end="80.00" id="1">
        <edge id="e_t" sampledSeconds="31.00" traveltime="23.64" overlapTraveltime="24.27" density="16.63" laneDensity="5.54" occupancy="2.77" waitingTime="10.00" timeLoss="13.94" speed="7.89" speedRelative="0.57" departed="1" arrived="0" entered="0" left="0" laneChangedFrom="2" laneChangedTo="2"/>
        <edge id="n_t" sampledSeconds="66.03" traveltime="125.09" overlapTraveltime="117.79" density="35.42" laneDensity="11.81" occupancy="5.80" waitingTime="47.00" timeLoss="58.00" speed="1.62" speedRelative="0.12" departed="1" arrived="0" entered="0" left="3" laneChangedFrom="0" laneChangedTo="0"/>
        <edge id="s_t" sampledSeconds="66.78" traveltime="154.04" overlapTraveltime="145.76" density="35.82" laneDensity="11.94" occupancy="5.87" waitingTime="48.00" timeLoss="60.21" speed="1.31" speedRelative="0.09" departed="1" arrived="0" entered="0" left="2" laneChangedFrom="0" laneChangedTo="0"/>
        <edge id="t_e" sampledSeconds="1.64" traveltime="24.85" overlapTraveltime="25.52" density="0.88" laneDensity="0.29" occupancy="0.11" waitingTime="0.00" timeLoss="0.77" speed="7.50" speedRelative="0.54" departed="0" arrived="0" entered="1" left="0" laneChangedFrom="0" laneChangedTo="0"/>
        <edge id="t_n" sampledSeconds="11.56" traveltime="14.23" overlapTraveltime="14.65" density="6.20" laneDensity="2.07" occupancy="0.99" waitingTime="0.00" timeLoss="1.51" speed="13.06" speedRelative="0.94" departed="0" arrived="1" entered="1" left="0" laneChangedFrom="0" laneChangedTo="0"/>
        <edge id="t_s" sampledSeconds="11.29" traveltime="17.58" overlapTraveltime="18.02" density="6.06" laneDensity="2.02" occupancy="0.96" waitingTime="0.00" timeLoss="1.58" speed="10.62" speedRelative="0.76" departed="0" arrived="1" entered="1" left="0" laneChangedFrom="0" laneChangedTo="0"/>
        <edge id="t_w" sampledSeconds="2.03" traveltime="20.11" overlapTraveltime="20.65" density="1.09" laneDensity="0.36" occupancy="0.15" waitingTime="0.00" timeLoss="0.67" speed="9.27" speedRelative="0.67" departed="0" arrived="0" entered="1" left="0" laneChangedFrom="0" laneChangedTo="0"/>
        <edge id="w_t" sampledSeconds="32.90" traveltime="23.41" overlapTraveltime="24.21" density="17.65" laneDensity="5.88" occupancy="2.90" waitingTime="10.00" timeLoss="14.41" speed="7.90" speedRelative="0.57" departed="1" arrived="0" entered="0" left="1" laneChangedFrom="2" laneChangedTo="2"/>
    </interval>
    <interval begin="80.00" end="90.00" id="1">
        <edge id="e_t" sampledSeconds="43.00" traveltime="38.47" overlapTraveltime="39.50" density="23.07" laneDensity="7.69" occupancy="3.84" waitingTime="17.00" timeLoss="28.48" speed="4.85" speedRelative="0.35" departed="1" arrived="0" entered="0" left="0" laneChangedFrom="0" laneChangedTo="0"/>
        <edge id="n_t" sampledSeconds="56.66" traveltime="45.43" overlapTraveltime="45.97" density="30.40" laneDensity="10.13" occupancy="5.02" waitingTime="30.00" timeLoss="40.70" speed="4.16" speedRelative="0.30" departed="2" arrived="0" entered="0" left="1" laneChangedFrom="3" laneChangedTo="3"/>
        <edge id="s_t" sampledSeconds="57.80" traveltime="44.52" overlapTraveltime="44.96" density="31.01" laneDensity="10.34" occupancy="5.10" waitingTime="30.00" timeLoss="40.73" speed="4.26" speedRelative="0.31" departed="2" arrived="0" entered="0" left="2" laneChangedFrom="3" laneChangedTo="3"/>
        <edge id="t_e" sampledSeconds="10.00" traveltime="14.44" overlapTraveltime="14.83" density="5.36" laneDensity="1.79" occupancy="0.89" waitingTime="0.00" timeLoss="0.89" speed="12.91" speedRelative="0.93" departed="0" arrived="0" entered="0" left="0" laneChangedFrom="0" laneChangedTo="0"/>
        <edge id="t_n" sampledSeconds="25.17" traveltime="13.12" overlapTraveltime="13.47" density="13.51" laneDensity="4.50" occupancy="2.20" waitingTime="0.00" timeLoss="1.85" speed="14.21" speedRelative="1.02" departed="0" arrived="1" entered="3" left="0" laneChangedFrom="0" laneChangedTo="0"/>
        <edge id="t_s" sampledSeconds="32.09" traveltime="14.53" overlapTraveltime="14.93" density="17.22" laneDensity="5.74" occupancy="2.79" waitingTime="0.00" timeLoss="2.98" speed="12.82" speedRelative="0.92" departed="0" arrived="1" entered="3" left="0" laneChangedFrom="0" laneChangedTo="0"/>
        <edge id="t_w" sampledSeconds="10.00" traveltime="14.07" overlapTraveltime="14.44" density="5.36" laneDensity="1.79" occupancy="0.89" waitingTime="0.00" timeLoss="0.41" speed="13.25" speedRelative="0.95" departed="0" arrived="0" entered="0" left="0" laneChangedFrom="0" laneChangedTo="0"/>
        <edge id="w_t" sampledSeconds="43.00" traveltime="39.10" overlapTraveltime="40.15" density="23.07" laneDensity="7.69" occupancy="3.84" waitingTime="19.00" timeLoss="27.23" speed="4.77" speedRelative="0.34" departed="1" arrived="0" entered="0" left="0" laneChangedFrom="0" laneChangedTo="0"/>
    </interval>
    <interval begin="90.00" end="100.00" id="1">
        <edge id="e_t" sampledSeconds="48.33" traveltime="48.70" overlapTraveltime="49.47" density="25.93" laneDensity="8.64" occupancy="4.29" waitingTime="30.00" timeLoss="33.36" speed="3.87" speedRelative="0.28" departed="1" arrived="0" entered="0" left="1" laneChangedFrom="2" laneChangedTo="2"/>
        <edge id="n_t" sampledSeconds="55.18" traveltime="34.99" overlapTraveltime="35.55" density="29.60" laneDensity="9.87" occupancy="4.92" waitingTime="31.00" timeLoss="34.49" speed="5.38" speedRelative="0.39" departed="0" arrived="0" entered="0" left="1" laneChangedFrom="0" laneChangedTo="0"/>
        <edge id="s_t" sampledSeconds="55.44" traveltime="38.09" overlapTraveltime="38.64" density="29.74" laneDensity="9.91" occupancy="4.94" waitingTime="32.00" timeLoss="35.42" speed="4.95" speedRelative="0.36" departed="0" arrived="0" entered="0" left="1" laneChangedFrom="0" laneChangedTo="0"/>
        <edge id="t_e" sampledSeconds="3.75" traveltime="14.02" overlapTraveltime="14.34" density="2.01" laneDensity="0.67" occupancy="0.32" waitingTime="0.00" timeLoss="0.22" speed="13.35" speedRelative="0.96" departed="0" arrived="1" entered="0" left="0" laneChangedFrom="0" laneChangedTo="0"/>
        <edge id="t_n" sampledSeconds="25.59" traveltime="13.79" overlapTraveltime="14.13" density="13.73" laneDensity="4.58" occupancy="2.22" waitingTime="0.00" timeLoss="2.94" speed="13.54" speedRelative="0.98" departed="0" arrived="3" entered="2" left="0" laneChangedFrom="0" laneChangedTo="0"/>
        <edge id="t_s" sampledSeconds="26.74" traveltime="14.49" overlapTraveltime="14.83" density="14.35" laneDensity="4.78" occupancy="2.29" waitingTime="0.00" timeLoss="3.29" speed="12.91" speedRelative="0.93" departed="0" arrived="3" entered="2" left="0" laneChangedFrom="0" laneChangedTo="0"/>
        <edge id="t_w" sampledSeconds="3.00" traveltime="14.44" overlapTraveltime="14.84" density="1.61" laneDensity="0.54" occupancy="0.26" waitingTime="0.00" timeLoss="0.20" speed="12.90" speedRelative="0.93" departed="0" arrived="1" entered="0" left="0" laneChangedFrom="0" laneChangedTo="0"/>
        <edge id="w_t" sampledSeconds="49.08" traveltime="47.71" overlapTraveltime="48.59" density="26.33" laneDensity="8.78" occupancy="4.35" waitingTime="30.00" timeLoss="33.12" speed="3.94" speedRelative="0.28" departed="1" arrived="0" entered="0" left="1" laneChangedFrom="2" laneChangedTo="2"/>
    </interval>
    <interval begin="100.00" end="110.00" id="1">
        <edge id="e_t" sampledSeconds="56.00" traveltime="54.79" overlapTraveltime="56.26" density="30.04" laneDensity="10.01" occupancy="5.01" waitingTime="34.00" timeLoss="40.63" speed="3.40" speedRelative="0.24" departed="1" arrived="0" entered="0" left="0" laneChangedFrom="1" laneChangedTo="1"/>
        <edge id="n_t" sampledSeconds="50.98" traveltime="184.13" overlapTraveltime="175.21" density="27.35" laneDensity="9.12" occupancy="4.52" waitingTime="40.00" timeLoss="46.46" speed="1.09" speedRelative="0.08" departed="3" arrived="0" entered="0" left="1" laneChangedFrom="2" laneChangedTo="2"/>
        <edge id="s_t" sampledSeconds="53.68" traveltime="125.04" overlapTraveltime="122.91" density="28.80" laneDensity="9.60" occupancy="4.76" waitingTime="40.00" timeLoss="46.65" speed="1.56" speedRelative="0.11" departed="3" arrived="0" entered="0" left="1" laneChangedFrom="2" laneChangedTo="2"/>
        <edge id="t_e" sampledSeconds="5.56" traveltime="18.97" overlapTraveltime="19.48" density="2.98" laneDensity="0.99" occupancy="0.46" waitingTime="0.00" timeLoss="1.19" speed="9.83" speedRelative="0.71" departed="0" arrived="0" entered="1" left="0" laneChangedFrom="0" laneChangedTo="0"/>
        <edge id="t_n" sampledSeconds="20.00" traveltime="13.43" overlapTraveltime="13.79" density="10.73" laneDensity="3.58" occupancy="1.79" waitingTime="0.00" timeLoss="0.67" speed="13.88" speedRelative="1.00" departed="0" arrived="0" entered="0" left="0" laneChangedFrom="0" laneChangedTo="0"/>
        <edge id="t_s" sampledSeconds="19.83" traveltime="13.74" overlapTraveltime="14.09" density="10.64" laneDensity="3.55" occupancy="1.76" waitingTime="0.00" timeLoss="0.91" speed="13.58" speedRelative="0.98" departed="0" arrived="1" entered="0" left="0" laneChangedFrom="0" laneChangedTo="0"/>
        <edge id="t_w" sampledSeconds="7.33" traveltime="15.81" overlapTraveltime="16.23" density="3.93" laneDensity="1.31" occupancy="0.62" waitingTime="0.00" timeLoss="1.09" speed="11.79" speedRelative="0.85" departed="0" arrived="0" entered="1" left="0" laneChangedFrom="0" laneChangedTo="0"/>
        <edge id="w_t" sampledSeconds="56.00" traveltime="49.58" overlapTraveltime="50.91" density="30.04" laneDensity="10.01" occupancy="5.01" waitingTime="34.00" timeLoss="41.87" speed="3.76" speedRelative="0.27" departed="1" arrived="0" entered="0" left="0" laneChangedFrom="1" laneChangedTo="1"/>
    </interval>
    <interval begin="110.00" end="120.00" id="1">
        <edge id="e_t" sampledSeconds="60.00" traveltime="57.15" overlapTraveltime="58.68" density="32.19" laneDensity="10.73" occupancy="5.36" waitingTime="41.00" timeLoss="45.26" speed="3.26" speedRelative="0.23" departed="0" arrived="0" entered="0" left="0" laneChangedFrom="0" laneChangedTo="0"/>
        <edge id="n_t" sampledSeconds="64.83" traveltime="31.15" overlapTraveltime="32.36" density="34.78" laneDensity="11.59" occupancy="5.70" waitingTime="22.00" timeLoss="36.23" speed="5.92" speedRelative="0.43" departed="0" arrived="0" entered="0" left="2" laneChangedFrom="1" laneChangedTo="1"/>
        <edge id="s_t" sampledSeconds="63.89" traveltime="29.25" overlapTraveltime="30.32" density="34.27" laneDensity="11.42" occupancy="5.63" waitingTime="22.00" timeLoss="35.71" speed="6.31" speedRelative="0.45" departed="0" arrived="0" entered="0" left="2" laneChangedFrom="1" laneChangedTo="1"/>
        <edge id="t_e" sampledSeconds="11.13" traveltime="15.69" overlapTraveltime="16.11" density="5.97" laneDensity="1.99" occupancy="0.97" waitingTime="0.00" timeLoss="0.70" speed="11.88" speedRelative="0.86" departed="0" arrived="0" entered="1" left="0" laneChangedFrom="0" laneChangedTo="0"/>
        <edge id="t_n" sampledSeconds="2.24" traveltime="13.44" overlapTraveltime="13.70" density="1.20" laneDensity="0.40" occupancy="0.17" waitingTime="0.00" timeLoss="0.06" speed="13.97" speedRelative="1.01" departed="0" arrived="2" entered="0" left="0" laneChangedFrom="0" laneChangedTo="0"/>
        <edge id="t_s" sampledSeconds="3.70" traveltime="14.74" overlapTraveltime="15.18" density="1.98" laneDensity="0.66" occupancy="0.31" waitingTime="0.00" timeLoss="0.19" speed="12.61" speedRelative="0.91" departed="0" arrived="1" entered="0" left="0" laneChangedFrom="0" laneChangedTo="0"/>
        <edge id="t_w" sampledSeconds="9.74" traveltime="14.37" overlapTraveltime="14.75" density="5.23" laneDensity="1.74" occupancy="0.83" waitingTime="0.00" timeLoss="0.79" speed="12.97" speedRelative="0.93" departed="0" arrived="1" entered="1" left="0" laneChangedFrom="0" laneChangedTo="0"/>
        <edge id="w_t" sampledSeconds="60.00" traveltime="63.07" overlapTraveltime="64.76" density="32.19" laneDensity="10.73" occupancy="5.36" waitingTime="46.00" timeLoss="48.51" speed="2.96" speedRelative="0.21" departed="0" arrived="0" entered="0" left="0" laneChangedFrom="0" laneChangedTo="0"/>
    </interval>
    <interval begin="120.00" end="130.00" id="1">
        <edge id="e_t" sampledSeconds="52.04" traveltime="1176.95" overlapTraveltime="760.50" density="27.92" laneDensity="9.31" occupancy="4.61" waitingTime="50.00" timeLoss="50.68" speed="0.25" speedRelative="0.02" departed="1" arrived="0" entered="0" left="1" laneChangedFrom="0" laneChangedTo="0"/>