<?xml version="1.0" encoding="UTF-8"?>

<!-- generated on 2025-08-18 17:10:14 by Eclipse SUMO GUI Version 1.16.0
<configuration xmlns:xsi="http://www.w3.org/2001/XMLSchema-instance" xsi:noNamespaceSchemaLocation="http://sumo.dlr.de/xsd/sumoConfiguration.xsd">

    <input>
        <net-file value="E:\txw\sumo-rl\nets\syc\1x1\Eq_350_BC_Wstr_Estr-Wleft_Eleft\Eq_140_40-60-20-80-Bus-Car\syc_4phases.net.xml"/>
        <route-files value="E:\txw\sumo-rl\nets\syc\1x1\Eq_350_BC_Wstr_Estr-Wleft_Eleft\Eq_140_40-60-20-80-Bus-Car\Eq_140_40-60-20-80-Bus-Car.rou.xml"/>
        <additional-files value="E:\txw\sumo-rl\nets\syc\1x1\Eq_350_BC_Wstr_Estr-Wleft_Eleft\Eq_140_40-60-20-80-Bus-Car\1x1_outputs.add.xml"/>
    </input>

    <output>
        <fcd-output value="E:\txw\sumo-rl\nets\syc\1x1\Eq_350_BC_Wstr_Estr-Wleft_Eleft\Eq_140_40-60-20-80-Bus-Car\output/fcd_output.xml"/>
        <tripinfo-output value="E:\txw\sumo-rl\nets\syc\1x1\Eq_350_BC_Wstr_Estr-Wleft_Eleft\Eq_140_40-60-20-80-Bus-Car\output/tripinfo.out.xml"/>
    </output>

    <time>
        <begin value="0"/>
        <end value="1000"/>
    </time>

</configuration>
-->

<fcd-export xmlns:xsi="http://www.w3.org/2001/XMLSchema-instance" xsi:noNamespaceSchemaLocation="http://sumo.dlr.de/xsd/fcd_file.xsd">
    <timestep time="0.00">
        <vehicle id="flow_ew_car.0" x="194.90" y="8.00" angle="270.00" type="car" speed="0.00" pos="5.10" lane="e_t_0" slope="0.00"/>
        <vehicle id="flow_ns_car.0" x="-8.00" y="194.90" angle="180.00" type="car" speed="0.00" pos="5.10" lane="n_t_0" slope="0.00"/>
        <vehicle id="flow_sn_car.0" x="8.00" y="-194.90" angle="0.00" type="car" speed="0.00" pos="5.10" lane="s_t_0" slope="0.00"/>
        <vehicle id="flow_we_car.0" x="-194.90" y="-8.00" angle="90.00" type="car" speed="0.00" pos="5.10" lane="w_t_0" slope="0.00"/>
    </timestep>
    <timestep time="1.00">
        <vehicle id="flow_ew_car.0" x="193.56" y="8.00" angle="270.00" type="car" speed="1.34" pos="6.44" lane="e_t_0" slope="0.00"/>
        <vehicle id="flow_ns_car.0" x="-8.00" y="192.94" angle="180.00" type="car" speed="1.96" pos="7.06" lane="n_t_0" slope="0.00"/>
        <vehicle id="flow_sn_car.0" x="8.00" y="-192.58" angle="0.00" type="car" speed="2.32" pos="7.42" lane="s_t_0" slope="0.00"/>
        <vehicle id="flow_we_car.0" x="-192.72" y="-8.00" angle="90.00" type="car" speed="2.18" pos="7.28" lane="w_t_0" slope="0.00"/>
    </timestep>
    <timestep time="2.00">
        <vehicle id="flow_ew_car.0" x="190.16" y="8.00" angle="270.00" type="car" speed="3.40" pos="9.84" lane="e_t_0" slope="0.00"/>
        <vehicle id="flow_ns_car.0" x="-8.00" y="188.50" angle="180.00" type="car" speed="4.44" pos="11.50" lane="n_t_0" slope="0.00"/>
        <vehicle id="flow_sn_car.0" x="8.00" y="-187.79" angle="0.00" type="car" speed="4.78" pos="12.21" lane="s_t_0" slope="0.00"/>
        <vehicle id="flow_we_car.0" x="-188.10" y="-8.00" angle="90.00" type="car" speed="4.62" pos="11.90" lane="w_t_0" slope="0.00"/>
    </timestep>
    <timestep time="3.00">
        <vehicle id="flow_ew_bus.0" x="194.90" y="8.00" angle="270.00" type="bus" speed="0.00" pos="5.10" lane="e_t_0" slope="0.00"/>
        <vehicle id="flow_ew_car.0" x="185.16" y="8.00" angle="270.00" type="car" speed="5.00" pos="14.84" lane="e_t_0" slope="0.00"/>
        <vehicle id="flow_ne_car.0" x="-8.00" y="194.90" angle="180.00" type="car" speed="0.00" pos="5.10" lane="n_t_0" slope="0.00"/>
        <vehicle id="flow_ns_car.0" x="-8.00" y="182.67" angle="180.00" type="car" speed="5.83" pos="17.33" lane="n_t_0" slope="0.00"/>
        <vehicle id="flow_sn_car.0" x="8.00" y="-181.28" angle="0.00" type="car" speed="6.51" pos="18.72" lane="s_t_0" slope="0.00"/>
        <vehicle id="flow_sw_car.0" x="8.00" y="-194.90" angle="0.00" type="car" speed="0.00" pos="5.10" lane="s_t_0" slope="0.00"/>
        <vehicle id="flow_we_bus.0" x="-194.90" y="-8.00" angle="90.00" type="bus" speed="0.00" pos="5.10" lane="w_t_0" slope="0.00"/>
        <vehicle id="flow_we_car.0" x="-181.30" y="-8.00" angle="90.00" type="car" speed="6.80" pos="18.70" lane="w_t_0" slope="0.00"/>
    </timestep>
    <timestep time="4.00">
        <vehicle id="flow_ew_bus.0" x="192.37" y="8.00" angle="270.00" type="bus" speed="2.53" pos="7.63" lane="e_t_0" slope="0.00"/>
        <vehicle id="flow_ew_car.0" x="178.31" y="8.00" angle="270.00" type="car" speed="6.86" pos="21.69" lane="e_t_0" slope="0.00"/>
        <vehicle id="flow_ne_car.0" x="-8.00" y="193.46" angle="180.00" type="car" speed="1.44" pos="6.54" lane="n_t_0" slope="0.00"/>
        <vehicle id="flow_ns_car.0" x="-4.80" y="174.46" angle="180.00" type="car" speed="8.21" pos="25.54" lane="n_t_1" slope="0.00"/>
        <vehicle id="flow_sn_car.0" x="4.80" y="-172.98" angle="0.00" type="car" speed="8.30" pos="27.02" lane="s_t_1" slope="0.00"/>
        <vehicle id="flow_sw_car.0" x="8.00" y="-193.21" angle="0.00" type="car" speed="1.69" pos="6.79" lane="s_t_0" slope="0.00"/>
        <vehicle id="flow_we_bus.0" x="-193.51" y="-8.00" angle="90.00" type="bus" speed="1.39" pos="6.49" lane="w_t_0" slope="0.00"/>
        <vehicle id="flow_we_car.0" x="-173.11" y="-4.80" angle="90.00" type="car" speed="8.19" pos="26.89" lane="w_t_1" slope="0.00"/>
    </timestep>
    <timestep time="5.00">
        <vehicle id="flow_ew_bus.0" x="188.06" y="8.00" angle="270.00" type="bus" speed="4.30" pos="11.94" lane="e_t_0" slope="0.00"/>
        <vehicle id="flow_ew_car.0" x="169.69" y="4.80" angle="270.00" type="car" speed="8.62" pos="30.31" lane="e_t_1" slope="0.00"/>
        <vehicle id="flow_ne_car.0" x="-8.00" y="190.61" angle="180.00" type="car" speed="2.85" pos="9.39" lane="n_t_0" slope="0.00"/>
        <vehicle id="flow_ns_car.0" x="-4.80" y="164.05" angle="180.00" type="car" speed="10.41" pos="35.95" lane="n_t_1" slope="0.00"/>
        <vehicle id="flow_se_car.0" x="8.00" y="-194.90" angle="0.00" type="car" speed="0.00" pos="5.10" lane="s_t_0" slope="0.00"/>
        <vehicle id="flow_sn_car.0" x="4.80" y="-163.32" angle="0.00" type="car" speed="9.66" pos="36.68" lane="s_t_1" slope="0.00"/>
        <vehicle id="flow_sw_car.0" x="4.80" y="-189.26" angle="0.00" type="car" speed="3.95" pos="10.74" lane="s_t_1" slope="0.00"/>
        <vehicle id="flow_we_bus.0" x="-190.07" y="-8.00" angle="90.00" type="bus" speed="3.44" pos="9.93" lane="w_t_0" slope="0.00"/>
        <vehicle id="flow_we_car.0" x="-163.37" y="-4.80" angle="90.00" type="car" speed="9.73" pos="36.63" lane="w_t_1" slope="0.00"/>
    </timestep>
    <timestep time="6.00">
        <vehicle id="flow_es_car.0" x="194.90" y="8.00" angle="270.00" type="car" speed="0.00" pos="5.10" lane="e_t_0" slope="0.00"/>
        <vehicle id="flow_ew_bus.0" x="181.89" y="8.00" angle="270.00" type="bus" speed="6.18" pos="18.11" lane="e_t_0" slope="0.00"/>
        <vehicle id="flow_ew_car.0" x="159.36" y="4.80" angle="270.00" type="car" speed="10.33" pos="40.64" lane="e_t_1" slope="0.00"/>
        <vehicle id="flow_ne_car.0" x="-4.80" y="185.70" angle="180.00" type="car" speed="4.91" pos="14.30" lane="n_t_1" slope="0.00"/>
        <vehicle id="flow_ns_car.0" x="-4.80" y="151.63" angle="180.00" type="car" speed="12.42" pos="48.37" lane="n_t_1" slope="0.00"/>
        <vehicle id="flow_nw_car.0" x="-8.00" y="194.90" angle="180.00" type="car" speed="0.00" pos="5.10" lane="n_t_0" slope="0.00"/>
        <vehicle id="flow_se_car.0" x="8.00" y="-193.42" angle="0.00" type="car" speed="1.48" pos="6.58" lane="s_t_0" slope="0.00"/>
        <vehicle id="flow_sn_car.0" x="4.80" y="-152.16" angle="0.00" type="car" speed="11.17" pos="47.84" lane="s_t_1" slope="0.00"/>
        <vehicle id="flow_sw_car.0" x="4.80" y="-183.85" angle="0.00" type="car" speed="5.41" pos="16.15" lane="s_t_1" slope="0.00"/>
        <vehicle id="flow_we_bus.0" x="-184.43" y="-8.00" angle="90.00" type="bus" speed="5.63" pos="15.57" lane="w_t_0" slope="0.00"/>
        <vehicle id="flow_we_car.0" x="-152.24" y="-4.80" angle="90.00" type="car" speed="11.14" pos="47.76" lane="w_t_1" slope="0.00"/>
        <vehicle id="flow_wn_car.0" x="-194.90" y="-8.00" angle="90.00" type="car" speed="0.00" pos="5.10" lane="w_t_0" slope="0.00"/>
    </timestep>
    <timestep time="7.00">
        <vehicle id="flow_es_car.0" x="192.94" y="8.00" angle="270.00" type="car" speed="1.96" pos="7.06" lane="e_t_0" slope="0.00"/>
        <vehicle id="flow_ew_bus.0" x="173.26" y="4.80" angle="270.00" type="bus" speed="8.63" pos="26.74" lane="e_t_1" slope="0.00"/>
        <vehicle id="flow_ew_car.0" x="146.84" y="4.80" angle="270.00" type="car" speed="12.52" pos="53.16" lane="e_t_1" slope="0.00"/>
        <vehicle id="flow_ne_car.0" x="-4.80" y="178.61" angle="180.00" type="car" speed="7.09" pos="21.39" lane="n_t_1" slope="0.00"/>
        <vehicle id="flow_ns_car.0" x="-4.80" y="136.61" angle="180.00" type="car" speed="15.01" pos="63.39" lane="n_t_1" slope="0.00"/>
        <vehicle id="flow_nw_car.0" x="-8.00" y="193.35" angle="180.00" type="car" speed="1.55" pos="6.65" lane="n_t_0" slope="0.00"/>
        <vehicle id="flow_se_car.0" x="8.00" y="-189.72" angle="0.00" type="car" speed="3.70" pos="10.28" lane="s_t_0" slope="0.00"/>
        <vehicle id="flow_sn_car.0" x="4.80" y="-138.44" angle="0.00" type="car" speed="13.72" pos="61.56" lane="s_t_1" slope="0.00"/>
        <vehicle id="flow_sw_car.0" x="1.60" y="-176.38" angle="0.00" type="car" speed="7.47" pos="23.62" lane="s_t_2" slope="0.00"/>
        <vehicle id="flow_we_bus.0" x="-176.70" y="-4.80" angle="90.00" type="bus" speed="7.73" pos="23.30" lane="w_t_1" slope="0.00"/>
        <vehicle id="flow_we_car.0" x="-139.06" y="-4.80" angle="90.00" type="car" speed="13.18" pos="60.94" lane="w_t_1" slope="0.00"/>
        <vehicle id="flow_wn_car.0" x="-192.51" y="-8.00" angle="90.00" type="car" speed="2.39" pos="7.49" lane="w_t_0" slope="0.00"/>
    </timestep>
    <timestep time="8.00">
        <vehicle id="flow_es_bus.0" x="194.90" y="8.00" angle="270.00" type="bus" speed="0.00" pos="5.10" lane="e_t_0" slope="0.00"/>
        <vehicle id="flow_es_car.0" x="188.90" y="4.80" angle="270.00" type="car" speed="4.04" pos="11.10" lane="e_t_1" slope="0.00"/>
        <vehicle id="flow_ew_bus.0" x="163.21" y="4.80" angle="270.00" type="bus" speed="10.05" pos="36.79" lane="e_t_1" slope="0.00"/>
        <vehicle id="flow_ew_car.0" x="133.26" y="4.80" angle="270.00" type="car" speed="13.57" pos="66.74" lane="e_t_1" slope="0.00"/>
        <vehicle id="flow_ne_car.0" x="-1.60" y="169.22" angle="180.00" type="car" speed="9.39" pos="30.78" lane="n_t_2" slope="0.00"/>
        <vehicle id="flow_ns_car.0" x="-4.80" y="122.13" angle="180.00" type="car" speed="14.49" pos="77.87" lane="n_t_1" slope="0.00"/>
        <vehicle id="flow_nw_car.0" x="-8.00" y="189.21" angle="180.00" type="car" speed="4.14" pos="10.79" lane="n_t_0" slope="0.00"/>
        <vehicle id="flow_se_car.0" x="8.00" y="-184.53" angle="0.00" type="car" speed="5.18" pos="15.47" lane="s_t_0" slope="0.00"/>
        <vehicle id="flow_sn_car.0" x="4.80" y="-124.37" angle="0.00" type="car" speed="14.07" pos="75.63" lane="s_t_1" slope="0.00"/>
        <vehicle id="flow_sw_car.0" x="1.60" y="-167.24" angle="0.00" type="car" speed="9.14" pos="32.76" lane="s_t_2" slope="0.00"/>
        <vehicle id="flow_we_bus.0" x="-167.24" y="-4.80" angle="90.00" type="bus" speed="9.46" pos="32.76" lane="w_t_1" slope="0.00"/>
        <vehicle id="flow_we_car.0" x="-126.06" y="-4.80" angle="90.00" type="car" speed="13.00" pos="73.94" lane="w_t_1" slope="0.00"/>
        <vehicle id="flow_wn_bus.0" x="-194.90" y="-8.00" angle="90.00" type="bus" speed="0.00" pos="5.10" lane="w_t_0" slope="0.00"/>
        <vehicle id="flow_wn_car.0" x="-188.54" y="-4.80" angle="90.00" type="car" speed="3.97" pos="11.46" lane="w_t_1" slope="0.00"/>
    </timestep>
    <timestep time="9.00">
        <vehicle id="flow_es_bus.0" x="192.93" y="8.00" angle="270.00" type="bus" speed="1.97" pos="7.07" lane="e_t_0" slope="0.00"/>
        <vehicle id="flow_es_car.0" x="183.42" y="4.80" angle="270.00" type="car" speed="5.48" pos="16.58" lane="e_t_1" slope="0.00"/>
        <vehicle id="flow_ew_bus.0" x="150.64" y="4.80" angle="270.00" type="bus" speed="12.57" pos="49.36" lane="e_t_1" slope="0.00"/>
        <vehicle id="flow_ew_car.0" x="118.57" y="4.80" angle="270.00" type="car" speed="14.69" pos="81.43" lane="e_t_1" slope="0.00"/>
        <vehicle id="flow_ne_car.0" x="-1.60" y="158.45" angle="180.00" type="car" speed="10.77" pos="41.55" lane="n_t_2" slope="0.00"/>
        <vehicle id="flow_ns_car.0" x="-4.80" y="108.05" angle="180.00" type="car" speed="14.08" pos="91.95" lane="n_t_1" slope="0.00"/>
        <vehicle id="flow_nw_car.0" x="-8.00" y="183.02" angle="180.00" type="car" speed="6.19" pos="16.98" lane="n_t_0" slope="0.00"/>
        <vehicle id="flow_se_car.0" x="8.00" y="-177.16" angle="0.00" type="car" speed="7.38" pos="22.84" lane="s_t_0" slope="0.00"/>
        <vehicle id="flow_sn_car.0" x="4.80" y="-110.22" angle="0.00" type="car" speed="14.14" pos="89.78" lane="s_t_1" slope="0.00"/>
        <vehicle id="flow_sw_car.0" x="1.60" y="-155.74" angle="0.00" type="car" speed="11.50" pos="44.26" lane="s_t_2" slope="0.00"/>
        <vehicle id="flow_we_bus.0" x="-155.48" y="-4.80" angle="90.00" type="bus" speed="11.76" pos="44.52" lane="w_t_1" slope="0.00"/>
        <vehicle id="flow_we_car.0" x="-112.88" y="-4.80" angle="90.00" type="car" speed="13.18" pos="87.12" lane="w_t_1" slope="0.00"/>
        <vehicle id="flow_wn_bus.0" x="-192.77" y="-8.00" angle="90.00" type="bus" speed="2.13" pos="7.23" lane="w_t_0" slope="0.00"/>
        <vehicle id="flow_wn_car.0" x="-182.31" y="-4.80" angle="90.00" type="car" speed="6.23" pos="17.69" lane="w_t_1" slope="0.00"/>
    </timestep>
    <timestep time="10.00">
        <vehicle id="flow_es_bus.0" x="189.54" y="8.00" angle="270.00" type="bus" speed="3.38" pos="10.46" lane="e_t_0" slope="0.00"/>
        <vehicle id="flow_es_car.0" x="176.19" y="4.80" angle="270.00" type="car" speed="7.23" pos="23.81" lane="e_t_1" slope="0.00"/>
        <vehicle id="flow_ew_bus.0" x="138.01" y="4.80" angle="270.00" type="bus" speed="12.63" pos="61.99" lane="e_t_1" slope="0.00"/>
        <vehicle id="flow_ew_car.0" x="104.79" y="4.80" angle="270.00" type="car" speed="13.78" pos="95.21" lane="e_t_1" slope="0.00"/>
        <vehicle id="flow_ne_car.0" x="-1.60" y="145.16" angle="180.00" type="car" speed="13.29" pos="54.84" lane="n_t_2" slope="0.00"/>
        <vehicle id="flow_ns_car.0" x="-4.80" y="93.74" angle="180.00" type="car" speed="14.31" pos="106.26" lane="n_t_1" slope="0.00"/>
        <vehicle id="flow_nw_car.0" x="-8.00" y="175.42" angle="180.00" type="car" speed="7.60" pos="24.58" lane="n_t_0" slope="0.00"/>
        <vehicle id="flow_se_car.0" x="8.00" y="-167.27" angle="0.00" type="car" speed="9.89" pos="32.73" lane="s_t_0" slope="0.00"/>
        <vehicle id="flow_sn_car.0" x="4.80" y="-96.14" angle="0.00" type="car" speed="14.08" pos="103.86" lane="s_t_1" slope="0.00"/>
        <vehicle id="flow_sw_car.0" x="1.60" y="-141.66" angle="0.00" type="car" speed="14.08" pos="58.34" lane="s_t_2" slope="0.00"/>
        <vehicle id="flow_we_bus.0" x="-141.79" y="-4.80" angle="90.00" type="bus" speed="13.69" pos="58.21" lane="w_t_1" slope="0.00"/>
        <vehicle id="flow_we_car.0" x="-99.32" y="-4.80" angle="90.00" type="car" speed="13.57" pos="100.68" lane="w_t_1" slope="0.00"/>
        <vehicle id="flow_wn_bus.0" x="-188.98" y="-4.80" angle="90.00" type="bus" speed="3.80" pos="11.02" lane="w_t_1" slope="0.00"/>
        <vehicle id="flow_wn_car.0" x="-173.78" y="-1.60" angle="90.00" type="car" speed="8.54" pos="26.22" lane="w_t_2" slope="0.00"/>
        <vehicle id="flow_ws_car.0" x="-194.90" y="-8.00" angle="90.00" type="car" speed="0.00" pos="5.10" lane="w_t_0" slope="0.00"/>
    </timestep>
    <timestep time="11.00">
        <vehicle id="flow_en_car.0" x="194.90" y="8.00" angle="270.00" type="car" speed="0.00" pos="5.10" lane="e_t_0" slope="0.00"/>
        <vehicle id="flow_es_bus.0" x="184.82" y="4.80" angle="270.00" type="bus" speed="4.72" pos="15.18" lane="e_t_1" slope="0.00"/>
        <vehicle id="flow_es_car.0" x="166.48" y="1.60" angle="270.00" type="car" speed="9.70" pos="33.52" lane="e_t_2" slope="0.00"/>
        <vehicle id="flow_ew_bus.0" x="125.29" y="4.80" angle="270.00" type="bus" speed="12.72" pos="74.71" lane="e_t_1" slope="0.00"/>
        <vehicle id="flow_ew_car.0" x="91.20" y="4.80" angle="270.00" type="car" speed="13.59" pos="108.80" lane="e_t_1" slope="0.00"/>
        <vehicle id="flow_ne_car.0" x="-1.60" y="130.87" angle="180.00" type="car" speed="14.29" pos="69.13" lane="n_t_2" slope="0.00"/>
        <vehicle id="flow_ns_car.0" x="-4.80" y="79.10" angle="180.00" type="car" speed="14.64" pos="120.90" lane="n_t_1" slope="0.00"/>
        <vehicle id="flow_nw_car.0" x="-8.00" y="166.09" angle="180.00" type="car" speed="9.34" pos="33.91" lane="n_t_0" slope="0.00"/>
        <vehicle id="flow_se_car.0" x="8.00" y="-155.58" angle="0.00" type="car" speed="11.68" pos="44.42" lane="s_t_0" slope="0.00"/>
        <vehicle id="flow_sn_car.0" x="4.80" y="-82.98" angle="0.00" type="car" speed="13.16" pos="117.02" lane="s_t_1" slope="0.00"/>
        <vehicle id="flow_sw_car.0" x="1.60" y="-126.23" angle="0.00" type="car" speed="15.43" pos="73.77" lane="s_t_2" slope="0.00"/>
        <vehicle id="flow_we_bus.0" x="-126.89" y="-4.80" angle="90.00" type="bus" speed="14.91" pos="73.11" lane="w_t_1" slope="0.00"/>
        <vehicle id="flow_we_car.0" x="-85.43" y="-4.80" angle="90.00" type="car" speed="13.88" pos="114.57" lane="w_t_1" slope="0.00"/>
        <vehicle id="flow_wn_bus.0" x="-182.94" y="-4.80" angle="90.00" type="bus" speed="6.04" pos="17.06" lane="w_t_1" slope="0.00"/>
        <vehicle id="flow_wn_car.0" x="-162.99" y="-1.60" angle="90.00" type="car" speed="10.78" pos="37.01" lane="w_t_2" slope="0.00"/>
        <vehicle id="flow_ws_car.0" x="-192.99" y="-8.00" angle="90.00" type="car" speed="1.91" pos="7.01" lane="w_t_0" slope="0.00"/>
    </timestep>
    <timestep time="12.00">
        <vehicle id="flow_en_car.0" x="192.59" y="8.00" angle="270.00" type="car" speed="2.31" pos="7.41" lane="e_t_0" slope="0.00"/>
        <vehicle id="flow_es_bus.0" x="177.69" y="1.60" angle="270.00" type="bus" speed="7.13" pos="22.31" lane="e_t_2" slope="0.00"/>
        <vehicle id="flow_es_car.0" x="154.76" y="1.60" angle="270.00" type="car" speed="11.72" pos="45.24" lane="e_t_2" slope="0.00"/>
        <vehicle id="flow_ew_bus.0" x="112.48" y="4.80" angle="270.00" type="bus" speed="12.81" pos="87.52" lane="e_t_1" slope="0.00"/>
        <vehicle id="flow_ew_car.0" x="76.64" y="4.80" angle="270.00" type="car" speed="14.57" pos="123.36" lane="e_t_1" slope="0.00"/>
        <vehicle id="flow_ne_car.0" x="-1.60" y="116.71" angle="180.00" type="car" speed="14.16" pos="83.29" lane="n_t_2" slope="0.00"/>
        <vehicle id="flow_ns_car.0" x="-4.80" y="63.96" angle="180.00" type="car" speed="15.14" pos="136.04" lane="n_t_1" slope="0.00"/>
        <vehicle id="flow_nw_car.0" x="-8.00" y="154.16" angle="180.00" type="car" speed="11.93" pos="45.84" lane="n_t_0" slope="0.00"/>
        <vehicle id="flow_se_car.0" x="8.00" y="-143.74" angle="0.00" type="car" speed="11.85" pos="56.26" lane="s_t_0" slope="0.00"/>
        <vehicle id="flow_sn_car.0" x="4.80" y="-69.27" angle="0.00" type="car" speed="13.71" pos="130.73" lane="s_t_1" slope="0.00"/>
        <vehicle id="flow_sw_car.0" x="1.60" y="-110.78" angle="0.00" type="car" speed="15.46" pos="89.22" lane="s_t_2" slope="0.00"/>
        <vehicle id="flow_we_bus.0" x="-112.24" y="-4.80" angle="90.00" type="bus" speed="14.65" pos="87.76" lane="w_t_1" slope="0.00"/>
        <vehicle id="flow_we_car.0" x="-72.20" y="-4.80" angle="90.00" type="car" speed="13.23" pos="127.80" lane="w_t_1" slope="0.00"/>
        <vehicle id="flow_wn_bus.0" x="-175.38" y="-1.60" angle="90.00" type="bus" speed="7.56" pos="24.62" lane="w_t_2" slope="0.00"/>
        <vehicle id="flow_wn_car.0" x="-150.35" y="-1.60" angle="90.00" type="car" speed="12.65" pos="49.65" lane="w_t_2" slope="0.00"/>
        <vehicle id="flow_ws_car.0" x="-189.66" y="-8.00" angle="90.00" type="car" speed="3.32" pos="10.34" lane="w_t_0" slope="0.00"/>
    </timestep>
    <timestep time="13.00">
        <vehicle id="flow_en_car.0" x="188.07" y="8.00" angle="270.00" type="car" speed="4.52" pos="11.93" lane="e_t_0" slope="0.00"/>
        <vehicle id="flow_es_bus.0" x="169.04" y="1.60" angle="270.00" type="bus" speed="8.66" pos="30.96" lane="e_t_2" slope="0.00"/>
        <vehicle id="flow_es_car.0" x="141.23" y="1.60" angle="270.00" type="car" speed="13.53" pos="58.77" lane="e_t_2" slope="0.00"/>
        <vehicle id="flow_ew_bus.0" x="100.21" y="4.80" angle="270.00" type="bus" speed="12.27" pos="99.79" lane="e_t_1" slope="0.00"/>
        <vehicle id="flow_ew_car.0" x="62.81" y="4.80" angle="270.00" type="car" speed="13.83" pos="137.19" lane="e_t_1" slope="0.00"/>
        <vehicle id="flow_ne_car.0" x="-1.60" y="103.40" angle="180.00" type="car" speed="13.31" pos="96.60" lane="n_t_2" slope="0.00"/>
        <vehicle id="flow_ns_car.0" x="-4.80" y="50.05" angle="180.00" type="car" speed="13.91" pos="149.95" lane="n_t_1" slope="0.00"/>
        <vehicle id="flow_nw_car.0" x="-8.00" y="140.99" angle="180.00" type="car" speed="13.17" pos="59.01" lane="n_t_0" slope="0.00"/>
        <vehicle id="flow_se_car.0" x="8.00" y="-132.00" angle="0.00" type="car" speed="11.73" pos="68.00" lane="s_t_0" slope="0.00"/>
        <vehicle id="flow_sn_car.0" x="4.80" y="-55.44" angle="0.00" type="car" speed="13.83" pos="144.56" lane="s_t_1" slope="0.00"/>
        <vehicle id="flow_sw_car.0" x="1.60" y="-96.38" angle="0.00" type="car" speed="14.39" pos="103.62" lane="s_t_2" slope="0.00"/>
        <vehicle id="flow_we_bus.0" x="-97.84" y="-4.80" angle="90.00" type="bus" speed="14.39" pos="102.16" lane="w_t_1" slope="0.00"/>
        <vehicle id="flow_we_car.0" x="-59.26" y="-4.80" angle="90.00" type="car" speed="12.95" pos="140.74" lane="w_t_1" slope="0.00"/>
        <vehicle id="flow_wn_bus.0" x="-165.23" y="-1.60" angle="90.00" type="bus" speed="10.15" pos="34.77" lane="w_t_2" slope="0.00"/>
        <vehicle id="flow_wn_car.0" x="-136.47" y="-1.60" angle="90.00" type="car" speed="13.88" pos="63.53" lane="w_t_2" slope="0.00"/>
        <vehicle id="flow_ws_car.0" x="-184.77" y="-8.00" angle="90.00" type="car" speed="4.90" pos="15.23" lane="w_t_0" slope="0.00"/>
    </timestep>
    <timestep time="14.00">
        <vehicle id="flow_en_car.0" x="181.44" y="8.00" angle="270.00" type="car" speed="6.63" pos="18.56" lane="e_t_0" slope="0.00"/>
        <vehicle id="flow_es_bus.0" x="158.93" y="1.60" angle="270.00" type="bus" speed="10.10" pos="41.07" lane="e_t_2" slope="0.00"/>
        <vehicle id="flow_es_car.0" x="127.09" y="1.60" angle="270.00" type="car" speed="14.14" pos="72.91" lane="e_t_2" slope="0.00"/>
        <vehicle id="flow_ew_bus.0" x="88.46" y="4.80" angle="270.00" type="bus" speed="11.75" pos="111.54" lane="e_t_1" slope="0.00"/>
        <vehicle id="flow_ew_car.0" x="48.59" y="4.80" angle="270.00" type="car" speed="14.21" pos="151.41" lane="e_t_1" slope="0.00"/>
        <vehicle id="flow_ne_car.0" x="-1.60" y="89.12" angle="180.00" type="car" speed="14.28" pos="110.88" lane="n_t_2" slope="0.00"/>
        <vehicle id="flow_ns_car.0" x="-4.80" y="35.79" angle="180.00" type="car" speed="14.26" pos="164.21" lane="n_t_1" slope="0.00"/>
        <vehicle id="flow_nw_car.0" x="-8.00" y="127.33" angle="180.00" type="car" speed="13.66" pos="72.67" lane="n_t_0" slope="0.00"/>
        <vehicle id="flow_se_car.0" x="8.00" y="-119.21" angle="0.00" type="car" speed="12.79" pos="80.79" lane="s_t_0" slope="0.00"/>
        <vehicle id="flow_sn_car.0" x="4.80" y="-41.23" angle="0.00" type="car" speed="14.22" pos="158.77" lane="s_t_1" slope="0.00"/>
        <vehicle id="flow_sw_car.0" x="1.60" y="-81.04" angle="0.00" type="car" speed="15.34" pos="118.96" lane="s_t_2" slope="0.00"/>
        <vehicle id="flow_we_bus.0" x="-83.70" y="-4.80" angle="90.00" type="bus" speed="14.15" pos="116.30" lane="w_t_1" slope="0.00"/>
        <vehicle id="flow_we_car.0" x="-46.50" y="-4.80" angle="90.00" type="car" speed="12.76" pos="153.50" lane="w_t_1" slope="0.00"/>
        <vehicle id="flow_wn_bus.0" x="-154.12" y="-1.60" angle="90.00" type="bus" speed="11.11" pos="45.88" lane="w_t_2" slope="0.00"/>
        <vehicle id="flow_wn_car.0" x="-123.00" y="-1.60" angle="90.00" type="car" speed="13.48" pos="77.00" lane="w_t_2" slope="0.00"/>
        <vehicle id="flow_ws_car.0" x="-177.75" y="-8.00" angle="90.00" type="car" speed="7.01" pos="22.25" lane="w_t_0" slope="0.00"/>
    </timestep>
    <timestep time="15.00">
        <vehicle id="flow_en_car.0" x="173.37" y="8.00" angle="270.00" type="car" speed="8.07" pos="26.63" lane="e_t_0" slope="0.00"/>
        <vehicle id="flow_es_bus.0" x="148.56" y="1.60" angle="270.00" type="bus" speed="10.37" pos="51.44" lane="e_t_2" slope="0.00"/>
        <vehicle id="flow_es_car.0" x="113.62" y="1.60" angle="270.00" type="car" speed="13.48" pos="86.38" lane="e_t_2" slope="0.00"/>
        <vehicle id="flow_ew_bus.0" x="75.76" y="4.80" angle="270.00" type="bus" speed="12.70" pos="124.24" lane="e_t_1" slope="0.00"/>
        <vehicle id="flow_ew_car.0" x="34.83" y="4.80" angle="270.00" type="car" speed="13.77" pos="165.17" lane="e_t_1" slope="0.00"/>
        <vehicle id="flow_ne_car.0" x="-1.60" y="75.48" angle="180.00" type="car" speed="13.64" pos="124.52" lane="n_t_2" slope="0.00"/>
        <vehicle id="flow_ns_car.0" x="-4.80" y="25.25" angle="180.00" type="car" speed="10.54" pos="174.75" lane="n_t_1" slope="0.00"/>
        <vehicle id="flow_nw_car.0" x="-8.00" y="113.68" angle="180.00" type="car" speed="13.65" pos="86.32" lane="n_t_0" slope="0.00"/>
        <vehicle id="flow_se_car.0" x="8.00" y="-107.20" angle="0.00" type="car" speed="12.01" pos="92.80" lane="s_t_0" slope="0.00"/>
        <vehicle id="flow_sn_car.0" x="4.80" y="-28.68" angle="0.00" type="car" speed="12.54" pos="171.32" lane="s_t_1" slope="0.00"/>
        <vehicle id="flow_sw_car.0" x="1.60" y="-65.52" angle="0.00" type="car" speed="15.52" pos="134.48" lane="s_t_2" slope="0.00"/>
        <vehicle id="flow_we_bus.0" x="-69.54" y="-4.80" angle="90.00" type="bus" speed="14.16" pos="130.46" lane="w_t_1" slope="0.00"/>
        <vehicle id="flow_we_car.0" x="-32.48" y="-4.80" angle="90.00" type="car" speed="14.02" pos="167.52" lane="w_t_1" slope="0.00"/>
        <vehicle id="flow_wn_bus.0" x="-142.29" y="-1.60" angle="90.00" type="bus" speed="11.83" pos="57.71" lane="w_t_2" slope="0.00"/>
        <vehicle id="flow_wn_car.0" x="-109.67" y="-1.60" angle="90.00" type="car" speed="13.33" pos="90.33" lane="w_t_2" slope="0.00"/>
        <vehicle id="flow_ws_car.0" x="-169.28" y="-8.00" angle="90.00" type="car" speed="8.48" pos="30.72" lane="w_t_0" slope="0.00"/>
    </timestep>
    <timestep time="16.00">
        <vehicle id="flow_en_car.0" x="163.13" y="8.00" angle="270.00" type="car" speed="10.24" pos="36.87" lane="e_t_0" slope="0.00"/>
        <vehicle id="flow_es_bus.0" x="137.47" y="1.60" angle="270.00" type="bus" speed="11.09" pos="62.53" lane="e_t_2" slope="0.00"/>
        <vehicle id="flow_es_car.0" x="99.98" y="1.60" angle="270.00" type="car" speed="13.64" pos="100.02" lane="e_t_2" slope="0.00"/>
        <vehicle id="flow_ew_bus.0" x="63.56" y="4.80" angle="270.00" type="bus" speed="12.20" pos="136.44" lane="e_t_1" slope="0.00"/>
        <vehicle id="flow_ew_car.0" x="21.26" y="4.80" angle="270.00" type="car" speed="13.57" pos="178.74" lane="e_t_1" slope="0.00"/>
        <vehicle id="flow_ne_car.0" x="-1.60" y="61.53" angle="180.00" type="car" speed="13.95" pos="138.47" lane="n_t_2" slope="0.00"/>
        <vehicle id="flow_ns_car.0" x="-4.80" y="18.88" angle="180.00" type="car" speed="6.38" pos="181.12" lane="n_t_1" slope="0.00"/>
        <vehicle id="flow_nw_car.0" x="-8.00" y="100.76" angle="180.00" type="car" speed="12.92" pos="99.24" lane="n_t_0" slope="0.00"/>
        <vehicle id="flow_se_car.0" x="8.00" y="-94.37" angle="0.00" type="car" speed="12.83" pos="105.63" lane="s_t_0" slope="0.00"/>
        <vehicle id="flow_sn_car.0" x="4.80" y="-19.82" angle="0.00" type="car" speed="8.87" pos="180.18" lane="s_t_1" slope="0.00"/>
        <vehicle id="flow_sw_car.0" x="1.60" y="-50.48" angle="0.00" type="car" speed="15.05" pos="149.52" lane="s_t_2" slope="0.00"/>
        <vehicle id="flow_we_bus.0" x="-55.10" y="-4.80" angle="90.00" type="bus" speed="14.44" pos="144.90" lane="w_t_1" slope="0.00"/>
        <vehicle id="flow_we_car.0" x="-18.50" y="-4.80" angle="90.00" type="car" speed="13.97" pos="181.50" lane="w_t_1" slope="0.00"/>
        <vehicle id="flow_wn_bus.0" x="-130.95" y="-1.60" angle="90.00" type="bus" speed="11.34" pos="69.05" lane="w_t_2" slope="0.00"/>
        <vehicle id="flow_wn_car.0" x="-95.59" y="-1.60" angle="90.00" type="car" speed="14.08" pos="104.41" lane="w_t_2" slope="0.00"/>
        <vehicle id="flow_ws_car.0" x="-158.38" y="-8.00" angle="90.00" type="car" speed="10.90" pos="41.62" lane="w_t_0" slope="0.00"/>
    </timestep>
    <timestep time="17.00">
        <vehicle id="flow_en_car.0" x="151.11" y="8.00" angle="270.00" type="car" speed="12.02" pos="48.89" lane="e_t_0" slope="0.00"/>
        <vehicle id="flow_es_bus.0" x="127.05" y="1.60" angle="270.00" type="bus" speed="10.42" pos="72.95" lane="e_t_2" slope="0.00"/>
        <vehicle id="flow_es_car.0" x="86.74" y="1.60" angle="270.00" type="car" speed="13.24" pos="113.26" lane="e_t_2" slope="0.00"/>
        <vehicle id="flow_ew_bus.0" x="51.55" y="4.80" angle="270.00" type="bus" speed="12.01" pos="148.45" lane="e_t_1" slope="0.00"/>
        <vehicle id="flow_ew_car.0" x="7.21" y="4.80" angle="270.00" type="car" speed="14.05" pos="6.39" lane=":t_4_0" slope="0.00"/>
        <vehicle id="flow_ne_car.0" x="-1.60" y="47.84" angle="180.00" type="car" speed="13.69" pos="152.16" lane="n_t_2" slope="0.00"/>