<?xml version="1.0" encoding="UTF-8"?>

<!-- generated on 2025-08-18 17:10:14 by Eclipse SUMO GUI Version 1.16.0
<configuration xmlns:xsi="http://www.w3.org/2001/XMLSchema-instance" xsi:noNamespaceSchemaLocation="http://sumo.dlr.de/xsd/sumoConfiguration.xsd">

    <input>
        <net-file value="E:\txw\sumo-rl\nets\syc\1x1\Eq_350_BC_Wstr_Estr-Wleft_Eleft\Eq_140_40-60-20-80-Bus-Car\syc_4phases.net.xml"/>
        <route-files value="E:\txw\sumo-rl\nets\syc\1x1\Eq_350_BC_Wstr_Estr-Wleft_Eleft\Eq_140_40-60-20-80-Bus-Car\Eq_140_40-60-20-80-Bus-Car.rou.xml"/>
        <additional-files value="E:\txw\sumo-rl\nets\syc\1x1\Eq_350_BC_Wstr_Estr-Wleft_Eleft\Eq_140_40-60-20-80-Bus-Car\1x1_outputs.add.xml"/>
    </input>

    <output>
        <fcd-output value="E:\txw\sumo-rl\nets\syc\1x1\Eq_350_BC_Wstr_Estr-Wleft_Eleft\Eq_140_40-60-20-80-Bus-Car\output/fcd_output.xml"/>
        <tripinfo-output value="E:\txw\sumo-rl\nets\syc\1x1\Eq_350_BC_Wstr_Estr-Wleft_Eleft\Eq_140_40-60-20-80-Bus-Car\output/tripinfo.out.xml"/>
    </output>

    <time>
        <begin value="0"/>
        <end value="1000"/>
    </time>

</configuration>
-->

<tripinfos xmlns:xsi="http://www.w3.org/2001/XMLSchema-instance" xsi:noNamespaceSchemaLocation="http://sumo.dlr.de/xsd/tripinfo_file.xsd">
    <tripinfo id="flow_ew_car.0" depart="0.00" departLane="e_t_0" departPos="5.10" departSpeed="0.00" departDelay="0.00" arrival="32.00" arrivalLane="t_w_1" arrivalPos="186.40" arrivalSpeed="14.32" duration="32.00" routeLength="394.90" waitingTime="0.00" waitingCount="0" stopTime="0.00" timeLoss="4.90" rerouteNo="0" devices="tripinfo_flow_ew_car.0 fcd_flow_ew_car.0" vType="car" speedFactor="1.06" vaporized=""/>
    <tripinfo id="flow_we_car.0" depart="0.00" departLane="w_t_0" departPos="5.10" departSpeed="0.00" departDelay="0.00" arrival="33.00" arrivalLane="t_e_1" arrivalPos="186.40" arrivalSpeed="13.86" duration="33.00" routeLength="394.90" waitingTime="0.00" waitingCount="0" stopTime="0.00" timeLoss="4.13" rerouteNo="0" devices="tripinfo_flow_we_car.0 fcd_flow_we_car.0" vType="car" speedFactor="1.01" vaporized=""/>
    <tripinfo id="flow_we_bus.0" depart="3.00" departLane="w_t_0" departPos="5.10" departSpeed="0.00" departDelay="3.00" arrival="35.00" arrivalLane="t_e_1" arrivalPos="186.40" arrivalSpeed="13.90" duration="32.00" routeLength="394.90" waitingTime="0.00" waitingCount="0" stopTime="0.00" timeLoss="4.87" rerouteNo="0" devices="tripinfo_flow_we_bus.0 fcd_flow_we_bus.0" vType="bus" speedFactor="1.08" vaporized=""/>
    <tripinfo id="flow_ew_bus.0" depart="3.00" departLane="e_t_0" departPos="5.10" departSpeed="0.00" departDelay="3.00" arrival="38.00" arrivalLane="t_w_1" arrivalPos="186.40" arrivalSpeed="12.58" duration="35.00" routeLength="394.90" waitingTime="0.00" waitingCount="0" stopTime="0.00" timeLoss="4.06" rerouteNo="0" devices="tripinfo_flow_ew_bus.0 fcd_flow_ew_bus.0" vType="bus" speedFactor="0.94" vaporized=""/>
    <tripinfo id="flow_nw_car.0" depart="6.00" departLane="n_t_0" departPos="5.10" departSpeed="0.00" departDelay="6.00" arrival="41.00" arrivalLane="t_w_0" arrivalPos="186.40" arrivalSpeed="13.72" duration="35.00" routeLength="376.73" waitingTime="0.00" waitingCount="0" stopTime="0.00" timeLoss="6.48" rerouteNo="0" devices="tripinfo_flow_nw_car.0 fcd_flow_nw_car.0" vType="car" speedFactor="0.99" vaporized=""/>
    <tripinfo id="flow_se_car.0" depart="5.00" departLane="s_t_0" departPos="5.10" departSpeed="0.00" departDelay="5.00" arrival="41.00" arrivalLane="t_e_0" arrivalPos="186.40" arrivalSpeed="12.86" duration="36.00" routeLength="376.73" waitingTime="0.00" waitingCount="0" stopTime="0.00" timeLoss="6.21" rerouteNo="0" devices="tripinfo_flow_se_car.0 fcd_flow_se_car.0" vType="car" speedFactor="0.93" vaporized=""/>
    <tripinfo id="flow_en_car.0" depart="11.00" departLane="e_t_0" departPos="5.10" departSpeed="0.00" departDelay="11.00" arrival="47.00" arrivalLane="t_n_0" arrivalPos="186.40" arrivalSpeed="12.05" duration="36.00" routeLength="376.73" waitingTime="0.00" waitingCount="0" stopTime="0.00" timeLoss="5.49" rerouteNo="0" devices="tripinfo_flow_en_car.0 fcd_flow_en_car.0" vType="car" speedFactor="0.94" vaporized=""/>
    <tripinfo id="flow_ws_car.0" depart="10.00" departLane="w_t_0" departPos="5.10" departSpeed="0.00" departDelay="10.00" arrival="49.00" arrivalLane="t_s_0" arrivalPos="186.40" arrivalSpeed="11.38" duration="39.00" routeLength="376.73" waitingTime="0.00" waitingCount="0" stopTime="0.00" timeLoss="6.02" rerouteNo="0" devices="tripinfo_flow_ws_car.0 fcd_flow_ws_car.0" vType="car" speedFactor="0.86" vaporized=""/>
    <tripinfo id="flow_es_car.0" depart="6.00" departLane="e_t_0" departPos="5.10" departSpeed="0.00" departDelay="6.00" arrival="56.00" arrivalLane="t_s_2" arrivalPos="186.40" arrivalSpeed="13.71" duration="50.00" routeLength="392.21" waitingTime="12.00" waitingCount="1" stopTime="0.00" timeLoss="21.83" rerouteNo="0" devices="tripinfo_flow_es_car.0 fcd_flow_es_car.0" vType="car" speedFactor="1.03" vaporized=""/>
    <tripinfo id="flow_wn_car.0" depart="6.00" departLane="w_t_0" departPos="5.10" departSpeed="0.00" departDelay="6.00" arrival="56.00" arrivalLane="t_n_2" arrivalPos="186.40" arrivalSpeed="13.97" duration="50.00" routeLength="392.21" waitingTime="14.00" waitingCount="1" stopTime="0.00" timeLoss="22.21" rerouteNo="0" devices="tripinfo_flow_wn_car.0 fcd_flow_wn_car.0" vType="car" speedFactor="1.05" vaporized=""/>
    <tripinfo id="flow_wn_bus.0" depart="8.00" departLane="w_t_0" departPos="5.10" departSpeed="0.00" departDelay="8.00" arrival="61.00" arrivalLane="t_n_2" arrivalPos="186.40" arrivalSpeed="11.28" duration="53.00" routeLength="392.21" waitingTime="10.00" waitingCount="1" stopTime="0.00" timeLoss="19.80" rerouteNo="0" devices="tripinfo_flow_wn_bus.0 fcd_flow_wn_bus.0" vType="bus" speedFactor="0.89" vaporized=""/>
    <tripinfo id="flow_es_bus.0" depart="8.00" departLane="e_t_0" departPos="5.10" departSpeed="0.00" departDelay="8.00" arrival="62.00" arrivalLane="t_s_2" arrivalPos="186.40" arrivalSpeed="11.22" duration="54.00" routeLength="392.21" waitingTime="9.00" waitingCount="1" stopTime="0.00" timeLoss="18.62" rerouteNo="0" devices="tripinfo_flow_es_bus.0 fcd_flow_es_bus.0" vType="bus" speedFactor="0.83" vaporized=""/>
    <tripinfo id="flow_ws_car.1" depart="26.00" departLane="w_t_0" departPos="5.10" departSpeed="0.00" departDelay="0.29" arrival="62.00" arrivalLane="t_s_0" arrivalPos="186.40" arrivalSpeed="11.86" duration="36.00" routeLength="376.73" waitingTime="0.00" waitingCount="0" stopTime="0.00" timeLoss="6.45" rerouteNo="0" devices="tripinfo_flow_ws_car.1 fcd_flow_ws_car.1" vType="car" speedFactor="0.94" vaporized=""/>
    <tripinfo id="flow_en_car.1" depart="26.00" departLane="e_t_0" departPos="5.10" departSpeed="0.00" departDelay="0.29" arrival="63.00" arrivalLane="t_n_0" arrivalPos="186.40" arrivalSpeed="11.68" duration="37.00" routeLength="376.73" waitingTime="0.00" waitingCount="0" stopTime="0.00" timeLoss="5.07" rerouteNo="0" devices="tripinfo_flow_en_car.1 fcd_flow_en_car.1" vType="car" speedFactor="0.88" vaporized=""/>
    <tripinfo id="flow_nw_car.1" depart="32.00" departLane="n_t_0" departPos="5.10" departSpeed="0.00" departDelay="6.29" arrival="67.00" arrivalLane="t_w_0" arrivalPos="186.40" arrivalSpeed="13.03" duration="35.00" routeLength="376.73" waitingTime="0.00" waitingCount="0" stopTime="0.00" timeLoss="6.18" rerouteNo="0" devices="tripinfo_flow_nw_car.1 fcd_flow_nw_car.1" vType="car" speedFactor="0.97" vaporized=""/>
    <tripinfo id="flow_se_car.1" depart="31.00" departLane="s_t_0" departPos="5.10" departSpeed="0.00" departDelay="5.29" arrival="68.00" arrivalLane="t_e_0" arrivalPos="186.40" arrivalSpeed="11.52" duration="37.00" routeLength="376.73" waitingTime="0.00" waitingCount="0" stopTime="0.00" timeLoss="5.79" rerouteNo="0" devices="tripinfo_flow_se_car.1 fcd_flow_se_car.1" vType="car" speedFactor="0.89" vaporized=""/>
    <tripinfo id="flow_wn_car.1" depart="33.00" departLane="w_t_0" departPos="5.10" departSpeed="0.00" departDelay="0.86" arrival="71.00" arrivalLane="t_n_2" arrivalPos="186.40" arrivalSpeed="11.58" duration="38.00" routeLength="392.21" waitingTime="0.00" waitingCount="0" stopTime="0.00" timeLoss="4.63" rerouteNo="0" devices="tripinfo_flow_wn_car.1 fcd_flow_wn_car.1" vType="car" speedFactor="0.87" vaporized=""/>
    <tripinfo id="flow_es_car.1" depart="33.00" departLane="e_t_0" departPos="5.10" departSpeed="0.00" departDelay="0.86" arrival="73.00" arrivalLane="t_s_2" arrivalPos="186.40" arrivalSpeed="11.25" duration="40.00" routeLength="392.21" waitingTime="0.00" waitingCount="0" stopTime="0.00" timeLoss="4.79" rerouteNo="0" devices="tripinfo_flow_es_car.1 fcd_flow_es_car.1" vType="car" speedFactor="0.83" vaporized=""/>
    <tripinfo id="flow_en_car.2" depart="52.00" departLane="e_t_0" departPos="5.10" departSpeed="0.00" departDelay="0.57" arrival="83.00" arrivalLane="t_n_0" arrivalPos="186.40" arrivalSpeed="14.51" duration="31.00" routeLength="376.73" waitingTime="0.00" waitingCount="0" stopTime="0.00" timeLoss="6.52" rerouteNo="0" devices="tripinfo_flow_en_car.2 fcd_flow_en_car.2" vType="car" speedFactor="1.13" vaporized=""/>
    <tripinfo id="flow_ws_car.2" depart="52.00" departLane="w_t_0" departPos="5.10" departSpeed="0.00" departDelay="0.57" arrival="89.00" arrivalLane="t_s_0" arrivalPos="186.40" arrivalSpeed="12.50" duration="37.00" routeLength="376.73" waitingTime="0.00" waitingCount="0" stopTime="0.00" timeLoss="6.62" rerouteNo="0" devices="tripinfo_flow_ws_car.2 fcd_flow_ws_car.2" vType="car" speedFactor="0.93" vaporized=""/>
    <tripinfo id="flow_nw_car.2" depart="57.00" departLane="n_t_0" departPos="5.10" departSpeed="0.00" departDelay="5.57" arrival="92.00" arrivalLane="t_w_0" arrivalPos="186.40" arrivalSpeed="12.81" duration="35.00" routeLength="376.73" waitingTime="0.00" waitingCount="0" stopTime="0.00" timeLoss="7.14" rerouteNo="0" devices="tripinfo_flow_nw_car.2 fcd_flow_nw_car.2" vType="car" speedFactor="0.99" vaporized=""/>
    <tripinfo id="flow_ns_car.0" depart="0.00" departLane="n_t_0" departPos="5.10" departSpeed="0.00" departDelay="0.00" arrival="93.00" arrivalLane="t_s_1" arrivalPos="186.40" arrivalSpeed="14.85" duration="93.00" routeLength="394.90" waitingTime="57.00" waitingCount="1" stopTime="0.00" timeLoss="66.46" rerouteNo="0" devices="tripinfo_flow_ns_car.0 fcd_flow_ns_car.0" vType="car" speedFactor="1.09" vaporized=""/>
    <tripinfo id="flow_se_car.2" depart="57.00" departLane="s_t_0" departPos="5.10" departSpeed="0.00" departDelay="5.57" arrival="93.00" arrivalLane="t_e_0" arrivalPos="186.40" arrivalSpeed="13.79" duration="36.00" routeLength="376.73" waitingTime="0.00" waitingCount="0" stopTime="0.00" timeLoss="8.14" rerouteNo="0" devices="tripinfo_flow_se_car.2 fcd_flow_se_car.2" vType="car" speedFactor="1.02" vaporized=""/>
    <tripinfo id="flow_sn_car.0" depart="0.00" departLane="s_t_0" departPos="5.10" departSpeed="0.00" departDelay="0.00" arrival="94.00" arrivalLane="t_n_1" arrivalPos="186.40" arrivalSpeed="13.44" duration="94.00" routeLength="394.90" waitingTime="55.00" waitingCount="1" stopTime="0.00" timeLoss="65.98" rerouteNo="0" devices="tripinfo_flow_sn_car.0 fcd_flow_sn_car.0" vType="car" speedFactor="1.03" vaporized=""/>
    <tripinfo id="flow_sn_car.1" depart="26.00" departLane="s_t_0" departPos="5.10" departSpeed="0.00" departDelay="0.29" arrival="96.00" arrivalLane="t_n_1" arrivalPos="186.40" arrivalSpeed="15.32" duration="70.00" routeLength="394.90" waitingTime="33.00" waitingCount="1" stopTime="0.00" timeLoss="44.71" rerouteNo="0" devices="tripinfo_flow_sn_car.1 fcd_flow_sn_car.1" vType="car" speedFactor="1.16" vaporized=""/>
    <tripinfo id="flow_ns_car.1" depart="26.00" departLane="n_t_0" departPos="5.10" departSpeed="0.00" departDelay="0.29" arrival="97.00" arrivalLane="t_s_1" arrivalPos="186.40" arrivalSpeed="11.88" duration="71.00" routeLength="394.90" waitingTime="31.00" waitingCount="1" stopTime="0.00" timeLoss="40.23" rerouteNo="0" devices="tripinfo_flow_ns_car.1 fcd_flow_ns_car.1" vType="car" speedFactor="0.94" vaporized=""/>
    <tripinfo id="flow_sn_car.2" depart="52.00" departLane="s_t_0" departPos="5.10" departSpeed="0.00" departDelay="0.57" arrival="97.00" arrivalLane="t_n_1" arrivalPos="186.40" arrivalSpeed="14.80" duration="45.00" routeLength="394.90" waitingTime="10.00" waitingCount="1" stopTime="0.00" timeLoss="20.26" rerouteNo="0" devices="tripinfo_flow_sn_car.2 fcd_flow_sn_car.2" vType="car" speedFactor="1.15" vaporized=""/>
    <tripinfo id="flow_ns_car.2" depart="52.00" departLane="n_t_0" departPos="5.10" departSpeed="0.00" departDelay="0.57" arrival="99.00" arrivalLane="t_s_1" arrivalPos="186.40" arrivalSpeed="15.66" duration="47.00" routeLength="394.90" waitingTime="8.00" waitingCount="1" stopTime="0.00" timeLoss="21.98" rerouteNo="0" devices="tripinfo_flow_ns_car.2 fcd_flow_ns_car.2" vType="car" speedFactor="1.18" vaporized=""/>
    <tripinfo id="flow_ns_car.3" depart="78.00" departLane="n_t_0" departPos="5.10" departSpeed="0.00" departDelay="0.86" arrival="109.00" arrivalLane="t_s_1" arrivalPos="186.40" arrivalSpeed="14.51" duration="31.00" routeLength="394.90" waitingTime="0.00" waitingCount="0" stopTime="0.00" timeLoss="4.47" rerouteNo="0" devices="tripinfo_flow_ns_car.3 fcd_flow_ns_car.3" vType="car" speedFactor="1.09" vaporized=""/>
    <tripinfo id="flow_sn_car.3" depart="78.00" departLane="s_t_0" departPos="5.10" departSpeed="0.00" departDelay="0.86" arrival="110.00" arrivalLane="t_n_1" arrivalPos="186.40" arrivalSpeed="14.32" duration="32.00" routeLength="394.90" waitingTime="0.00" waitingCount="0" stopTime="0.00" timeLoss="3.97" rerouteNo="0" devices="tripinfo_flow_sn_car.3 fcd_flow_sn_car.3" vType="car" speedFactor="1.04" vaporized=""/>
    <tripinfo id="flow_en_car.3" depart="78.00" departLane="e_t_0" departPos="5.10" departSpeed="0.00" departDelay="0.86" arrival="111.00" arrivalLane="t_n_0" arrivalPos="186.40" arrivalSpeed="14.10" duration="33.00" routeLength="376.73" waitingTime="0.00" waitingCount="0" stopTime="0.00" timeLoss="5.36" rerouteNo="0" devices="tripinfo_flow_en_car.3 fcd_flow_en_car.3" vType="car" speedFactor="1.03" vaporized=""/>
    <tripinfo id="flow_ws_car.3" depart="78.00" departLane="w_t_0" departPos="5.10" departSpeed="0.00" departDelay="0.86" arrival="113.00" arrivalLane="t_s_0" arrivalPos="186.40" arrivalSpeed="12.29" duration="35.00" routeLength="376.73" waitingTime="0.00" waitingCount="0" stopTime="0.00" timeLoss="5.52" rerouteNo="0" devices="tripinfo_flow_ws_car.3 fcd_flow_ws_car.3" vType="car" speedFactor="0.96" vaporized=""/>
    <tripinfo id="flow_nw_car.3" depart="83.00" departLane="n_t_0" departPos="5.10" departSpeed="0.00" departDelay="5.86" arrival="117.00" arrivalLane="t_w_0" arrivalPos="186.40" arrivalSpeed="13.02" duration="34.00" routeLength="376.73" waitingTime="0.00" waitingCount="0" stopTime="0.00" timeLoss="5.94" rerouteNo="0" devices="tripinfo_flow_nw_car.3 fcd_flow_nw_car.3" vType="car" speedFactor="1.00" vaporized=""/>
    <tripinfo id="flow_se_car.3" depart="83.00" departLane="s_t_0" departPos="5.10" departSpeed="0.00" departDelay="5.86" arrival="121.00" arrivalLane="t_e_0" arrivalPos="186.40" arrivalSpeed="12.00" duration="38.00" routeLength="376.73" waitingTime="0.00" waitingCount="0" stopTime="0.00" timeLoss="6.01" rerouteNo="0" devices="tripinfo_flow_se_car.3 fcd_flow_se_car.3" vType="car" speedFactor="0.90" vaporized=""/>
    <tripinfo id="flow_sw_car.0" depart="3.00" departLane="s_t_0" departPos="5.10" departSpeed="0.00" departDelay="3.00" arrival="131.00" arrivalLane="t_w_2" arrivalPos="186.40" arrivalSpeed="14.70" duration="128.00" routeLength="392.21" waitingTime="92.00" waitingCount="1" stopTime="0.00" timeLoss="101.47" rerouteNo="0" devices="tripinfo_flow_sw_car.0 fcd_flow_sw_car.0" vType="car" speedFactor="1.12" vaporized=""/>
    <tripinfo id="flow_ne_car.0" depart="3.00" departLane="n_t_0" departPos="5.10" departSpeed="0.00" departDelay="3.00" arrival="132.00" arrivalLane="t_e_2" arrivalPos="186.40" arrivalSpeed="14.27" duration="129.00" routeLength="392.21" waitingTime="91.00" waitingCount="1" stopTime="0.00" timeLoss="101.08" rerouteNo="0" devices="tripinfo_flow_ne_car.0 fcd_flow_ne_car.0" vType="car" speedFactor="1.05" vaporized=""/>
    <tripinfo id="flow_ne_car.1" depart="29.00" departLane="n_t_0" departPos="5.10" departSpeed="0.00" departDelay="3.29" arrival="134.00" arrivalLane="t_e_2" arrivalPos="186.40" arrivalSpeed="13.57" duration="105.00" routeLength="392.21" waitingTime="66.00" waitingCount="1" stopTime="0.00" timeLoss="76.66" rerouteNo="0" devices="tripinfo_flow_ne_car.1 fcd_flow_ne_car.1" vType="car" speedFactor="1.02" vaporized=""/>
    <tripinfo id="flow_sw_car.1" depart="29.00" departLane="s_t_0" departPos="5.10" departSpeed="0.00" departDelay="3.29" arrival="134.00" arrivalLane="t_w_2" arrivalPos="186.40" arrivalSpeed="13.83" duration="105.00" routeLength="392.21" waitingTime="67.00" waitingCount="1" stopTime="0.00" timeLoss="76.05" rerouteNo="0" devices="tripinfo_flow_sw_car.1 fcd_flow_sw_car.1" vType="car" speedFactor="1.01" vaporized=""/>
    <tripinfo id="flow_ws_car.4" depart="103.00" departLane="w_t_0" departPos="5.10" departSpeed="0.00" departDelay="0.14" arrival="135.00" arrivalLane="t_s_0" arrivalPos="186.40" arrivalSpeed="14.99" duration="32.00" routeLength="376.73" waitingTime="0.00" waitingCount="0" stopTime="0.00" timeLoss="6.68" rerouteNo="0" devices="tripinfo_flow_ws_car.4 fcd_flow_ws_car.4" vType="car" speedFactor="1.10" vaporized=""/>
    <tripinfo id="flow_sw_car.2" depart="55.00" departLane="s_t_0" departPos="5.10" departSpeed="0.00" departDelay="3.57" arrival="136.00" arrivalLane="t_w_2" arrivalPos="186.40" arrivalSpeed="16.23" duration="81.00" routeLength="392.21" waitingTime="43.00" waitingCount="1" stopTime="0.00" timeLoss="55.69" rerouteNo="0" devices="tripinfo_flow_sw_car.2 fcd_flow_sw_car.2" vType="car" speedFactor="1.17" vaporized=""/>
    <tripinfo id="flow_ne_car.2" depart="55.00" departLane="n_t_0" departPos="5.10" departSpeed="0.00" departDelay="3.57" arrival="137.00" arrivalLane="t_e_2" arrivalPos="186.40" arrivalSpeed="13.46" duration="82.00" routeLength="392.21" waitingTime="42.00" waitingCount="1" stopTime="0.00" timeLoss="52.67" rerouteNo="0" devices="tripinfo_flow_ne_car.2 fcd_flow_ne_car.2" vType="car" speedFactor="1.01" vaporized=""/>
    <tripinfo id="flow_en_car.4" depart="103.00" departLane="e_t_0" departPos="5.10" departSpeed="0.00" departDelay="0.14" arrival="137.00" arrivalLane="t_n_0" arrivalPos="186.40" arrivalSpeed="13.98" duration="34.00" routeLength="376.73" waitingTime="0.00" waitingCount="0" stopTime="0.00" timeLoss="6.38" rerouteNo="0" devices="tripinfo_flow_en_car.4 fcd_flow_en_car.4" vType="car" speedFactor="1.02" vaporized=""/>
    <tripinfo id="flow_sw_car.3" depart="81.00" departLane="s_t_0" departPos="5.10" departSpeed="0.00" departDelay="3.86" arrival="138.00" arrivalLane="t_w_2" arrivalPos="186.40" arrivalSpeed="14.80" duration="57.00" routeLength="392.21" waitingTime="19.00" waitingCount="1" stopTime="0.00" timeLoss="29.77" rerouteNo="0" devices="tripinfo_flow_sw_car.3 fcd_flow_sw_car.3" vType="car" speedFactor="1.09" vaporized=""/>
    <tripinfo id="flow_ne_car.3" depart="81.00" departLane="n_t_0" departPos="5.10" departSpeed="0.00" departDelay="3.86" arrival="139.00" arrivalLane="t_e_2" arrivalPos="186.40" arrivalSpeed="13.63" duration="58.00" routeLength="392.21" waitingTime="18.00" waitingCount="1" stopTime="0.00" timeLoss="30.09" rerouteNo="0" devices="tripinfo_flow_ne_car.3 fcd_flow_ne_car.3" vType="car" speedFactor="1.04" vaporized=""/>
    <tripinfo id="flow_sw_car.4" depart="106.00" departLane="s_t_0" departPos="5.10" departSpeed="0.00" departDelay="3.14" arrival="140.00" arrivalLane="t_w_2" arrivalPos="186.40" arrivalSpeed="14.91" duration="34.00" routeLength="392.21" waitingTime="0.00" waitingCount="0" stopTime="0.00" timeLoss="8.45" rerouteNo="0" devices="tripinfo_flow_sw_car.4 fcd_flow_sw_car.4" vType="car" speedFactor="1.14" vaporized=""/>
    <tripinfo id="flow_nw_car.4" depart="109.00" departLane="n_t_0" departPos="5.10" departSpeed="0.00" departDelay="6.14" arrival="142.00" arrivalLane="t_w_0" arrivalPos="186.40" arrivalSpeed="13.65" duration="33.00" routeLength="376.73" waitingTime="0.00" waitingCount="0" stopTime="0.00" timeLoss="5.30" rerouteNo="0" devices="tripinfo_flow_nw_car.4 fcd_flow_nw_car.4" vType="car" speedFactor="1.02" vaporized=""/>
    <tripinfo id="flow_se_car.4" depart="108.00" departLane="s_t_0" departPos="5.10" departSpeed="0.00" departDelay="5.14" arrival="144.00" arrivalLane="t_e_0" arrivalPos="186.40" arrivalSpeed="12.38" duration="36.00" routeLength="376.73" waitingTime="0.00" waitingCount="0" stopTime="0.00" timeLoss="6.24" rerouteNo="0" devices="tripinfo_flow_se_car.4 fcd_flow_se_car.4" vType="car" speedFactor="0.97" vaporized=""/>
    <tripinfo id="flow_ne_car.4" depart="106.00" departLane="n_t_0" departPos="5.10" departSpeed="0.00" departDelay="3.14" arrival="145.00" arrivalLane="t_e_2" arrivalPos="186.40" arrivalSpeed="11.95" duration="39.00" routeLength="392.21" waitingTime="0.00" waitingCount="0" stopTime="0.00" timeLoss="6.33" rerouteNo="0" devices="tripinfo_flow_ne_car.4 fcd_flow_ne_car.4" vType="car" speedFactor="0.90" vaporized=""/>
    <tripinfo id="flow_nw_car.5" depart="134.00" departLane="n_t_0" departPos="5.10" departSpeed="0.00" departDelay="5.43" arrival="170.00" arrivalLane="t_w_0" arrivalPos="186.40" arrivalSpeed="12.41" duration="36.00" routeLength="376.73" waitingTime="0.00" waitingCount="0" stopTime="0.00" timeLoss="6.41" rerouteNo="0" devices="tripinfo_flow_nw_car.5 fcd_flow_nw_car.5" vType="car" speedFactor="0.96" vaporized=""/>
    <tripinfo id="flow_se_car.5" depart="134.00" departLane="s_t_0" departPos="5.10" departSpeed="0.00" departDelay="5.43" arrival="170.00" arrivalLane="t_e_0" arrivalPos="186.40" arrivalSpeed="12.46" duration="36.00" routeLength="376.73" waitingTime="0.00" waitingCount="0" stopTime="0.00" timeLoss="7.27" rerouteNo="0" devices="tripinfo_flow_se_car.5 fcd_flow_se_car.5" vType="car" speedFactor="0.98" vaporized=""/>
    <tripinfo id="flow_ew_car.1" depart="43.00" departLane="e_t_0" departPos="5.10" departSpeed="0.00" departDelay="0.14" arrival="172.00" arrivalLane="t_w_1" arrivalPos="186.40" arrivalSpeed="12.55" duration="129.00" routeLength="394.90" waitingTime="88.00" waitingCount="1" stopTime="0.00" timeLoss="97.64" rerouteNo="0" devices="tripinfo_flow_ew_car.1 fcd_flow_ew_car.1" vType="car" speedFactor="0.92" vaporized=""/>
    <tripinfo id="flow_we_car.1" depart="43.00" departLane="w_t_0" departPos="5.10" departSpeed="0.00" departDelay="0.14" arrival="172.00" arrivalLane="t_e_1" arrivalPos="186.40" arrivalSpeed="12.36" duration="129.00" routeLength="394.90" waitingTime="88.00" waitingCount="1" stopTime="0.00" timeLoss="98.16" rerouteNo="0" devices="tripinfo_flow_we_car.1 fcd_flow_we_car.1" vType="car" speedFactor="0.95" vaporized=""/>
    <tripinfo id="flow_ws_car.5" depart="139.00" departLane="w_t_0" departPos="5.10" departSpeed="0.00" departDelay="10.43" arrival="172.00" arrivalLane="t_s_0" arrivalPos="186.40" arrivalSpeed="13.60" duration="33.00" routeLength="376.73" waitingTime="0.00" waitingCount="0" stopTime="0.00" timeLoss="5.57" rerouteNo="0" devices="tripinfo_flow_ws_car.5 fcd_flow_ws_car.5" vType="car" speedFactor="1.02" vaporized=""/>
    <tripinfo id="flow_we_bus.1" depart="65.00" departLane="w_t_0" departPos="5.10" departSpeed="0.00" departDelay="0.71" arrival="173.00" arrivalLane="t_e_1" arrivalPos="186.40" arrivalSpeed="15.19" duration="108.00" routeLength="394.90" waitingTime="70.00" waitingCount="1" stopTime="0.00" timeLoss="83.54" rerouteNo="0" devices="tripinfo_flow_we_bus.1 fcd_flow_we_bus.1" vType="bus" speedFactor="1.18" vaporized=""/>
    <tripinfo id="flow_ew_bus.1" depart="65.00" departLane="e_t_0" departPos="5.10" departSpeed="0.00" departDelay="0.71" arrival="174.00" arrivalLane="t_w_1" arrivalPos="186.40" arrivalSpeed="12.47" duration="109.00" routeLength="394.90" waitingTime="68.00" waitingCount="1" stopTime="0.00" timeLoss="79.19" rerouteNo="0" devices="tripinfo_flow_ew_bus.1 fcd_flow_ew_bus.1" vType="bus" speedFactor="0.97" vaporized=""/>
    <tripinfo id="flow_en_car.5" depart="140.00" departLane="e_t_0" departPos="5.10" departSpeed="0.00" departDelay="11.43" arrival="174.00" arrivalLane="t_n_0" arrivalPos="186.40" arrivalSpeed="13.66" duration="34.00" routeLength="376.73" waitingTime="0.00" waitingCount="0" stopTime="0.00" timeLoss="6.64" rerouteNo="0" devices="tripinfo_flow_en_car.5 fcd_flow_en_car.5" vType="car" speedFactor="1.04" vaporized=""/>
    <tripinfo id="flow_ew_car.2" depart="86.00" departLane="e_t_0" departPos="5.10" departSpeed="0.00" departDelay="0.29" arrival="177.00" arrivalLane="t_w_1" arrivalPos="186.40" arrivalSpeed="11.89" duration="91.00" routeLength="394.90" waitingTime="48.00" waitingCount="1" stopTime="0.00" timeLoss="58.01" rerouteNo="0" devices="tripinfo_flow_ew_car.2 fcd_flow_ew_car.2" vType="car" speedFactor="0.88" vaporized=""/>
    <tripinfo id="flow_we_car.2" depart="86.00" departLane="w_t_0" departPos="5.10" departSpeed="0.00" departDelay="0.29" arrival="178.00" arrivalLane="t_e_1" arrivalPos="186.40" arrivalSpeed="11.24" duration="92.00" routeLength="394.90" waitingTime="48.00" waitingCount="1" stopTime="0.00" timeLoss="57.82" rerouteNo="0" devices="tripinfo_flow_we_car.2 fcd_flow_we_car.2" vType="car" speedFactor="0.85" vaporized=""/>
    <tripinfo id="flow_ew_car.3" depart="129.00" departLane="e_t_0" departPos="5.10" departSpeed="0.00" departDelay="0.43" arrival="179.00" arrivalLane="t_w_1" arrivalPos="186.40" arrivalSpeed="14.52" duration="50.00" routeLength="394.90" waitingTime="8.00" waitingCount="1" stopTime="0.00" timeLoss="22.80" rerouteNo="0" devices="tripinfo_flow_ew_car.3 fcd_flow_ew_car.3" vType="car" speedFactor="1.08" vaporized=""/>
    <tripinfo id="flow_we_car.3" depart="129.00" departLane="w_t_0" departPos="5.10" departSpeed="0.00" departDelay="0.43" arrival="179.00" arrivalLane="t_e_1" arrivalPos="186.40" arrivalSpeed="12.73" duration="50.00" routeLength="394.90" waitingTime="8.00" waitingCount="1" stopTime="0.00" timeLoss="21.91" rerouteNo="0" devices="tripinfo_flow_we_car.3 fcd_flow_we_car.3" vType="car" speedFactor="1.02" vaporized=""/>
    <tripinfo id="flow_ew_bus.2" depart="132.00" departLane="e_t_0" departPos="5.10" departSpeed="0.00" departDelay="3.43" arrival="180.00" arrivalLane="t_w_1" arrivalPos="186.40" arrivalSpeed="14.37" duration="48.00" routeLength="394.90" waitingTime="7.00" waitingCount="1" stopTime="0.00" timeLoss="22.25" rerouteNo="0" devices="tripinfo_flow_ew_bus.2 fcd_flow_ew_bus.2" vType="bus" speedFactor="1.12" vaporized=""/>
    <tripinfo id="flow_we_bus.2" depart="132.00" departLane="w_t_0" departPos="5.10" departSpeed="0.00" departDelay="3.43" arrival="181.00" arrivalLane="t_e_1" arrivalPos="186.40" arrivalSpeed="13.44" duration="49.00" routeLength="394.90" waitingTime="6.00" waitingCount="1" stopTime="0.00" timeLoss="19.85" rerouteNo="0" devices="tripinfo_flow_we_bus.2 fcd_flow_we_bus.2" vType="bus" speedFactor="0.99" vaporized=""/>
    <tripinfo id="flow_en_car.6" depart="155.00" departLane="e_t_0" departPos="5.10" departSpeed="0.00" departDelay="0.72" arrival="189.00" arrivalLane="t_n_0" arrivalPos="186.40" arrivalSpeed="13.16" duration="34.00" routeLength="376.73" waitingTime="0.00" waitingCount="0" stopTime="0.00" timeLoss="6.11" rerouteNo="0" devices="tripinfo_flow_en_car.6 fcd_flow_en_car.6" vType="car" speedFactor="1.03" vaporized=""/>
    <tripinfo id="flow_ws_car.6" depart="155.00" departLane="w_t_0" departPos="5.10" departSpeed="0.00" departDelay="0.72" arrival="189.00" arrivalLane="t_s_0" arrivalPos="186.40" arrivalSpeed="13.35" duration="34.00" routeLength="376.73" waitingTime="0.00" waitingCount="0" stopTime="0.00" timeLoss="5.71" rerouteNo="0" devices="tripinfo_flow_ws_car.6 fcd_flow_ws_car.6" vType="car" speedFactor="0.98" vaporized=""/>
    <tripinfo id="flow_nw_car.6" depart="160.00" departLane="n_t_0" departPos="5.10" departSpeed="0.00" departDelay="5.72" arrival="194.00" arrivalLane="t_w_0" arrivalPos="186.40" arrivalSpeed="13.54" duration="34.00" routeLength="376.73" waitingTime="0.00" waitingCount="0" stopTime="0.00" timeLoss="6.44" rerouteNo="0" devices="tripinfo_flow_nw_car.6 fcd_flow_nw_car.6" vType="car" speedFactor="1.02" vaporized=""/>
    <tripinfo id="flow_se_car.6" depart="160.00" departLane="s_t_0" departPos="5.10" departSpeed="0.00" departDelay="5.72" arrival="195.00" arrivalLane="t_e_0" arrivalPos="186.40" arrivalSpeed="12.99" duration="35.00" routeLength="376.73" waitingTime="0.00" waitingCount="0" stopTime="0.00" timeLoss="5.83" rerouteNo="0" devices="tripinfo_flow_se_car.6 fcd_flow_se_car.6" vType="car" speedFactor="0.97" vaporized=""/>
    <tripinfo id="flow_es_car.2" depart="68.00" departLane="e_t_0" departPos="5.10" departSpeed="0.00" departDelay="3.71" arrival="207.00" arrivalLane="t_s_2" arrivalPos="186.40" arrivalSpeed="14.62" duration="139.00" routeLength="392.21" waitingTime="102.00" waitingCount="1" stopTime="0.00" timeLoss="112.87" rerouteNo="0" devices="tripinfo_flow_es_car.2 fcd_flow_es_car.2" vType="car" speedFactor="1.10" vaporized=""/>
    <tripinfo id="flow_wn_car.2" depart="68.00" departLane="w_t_0" departPos="5.10" departSpeed="0.00" departDelay="3.71" arrival="210.00" arrivalLane="t_n_2" arrivalPos="186.40" arrivalSpeed="11.41" duration="142.00" routeLength="392.21" waitingTime="102.00" waitingCount="1" stopTime="0.00" timeLoss="110.05" rerouteNo="0" devices="tripinfo_flow_wn_car.2 fcd_flow_wn_car.2" vType="car" speedFactor="0.90" vaporized=""/>