<?xml version="1.0" encoding="UTF-8"?>

<!-- generated on 2025-08-18 16:45:51 by Eclipse SUMO GUI Version 1.16.0
<configuration xmlns:xsi="http://www.w3.org/2001/XMLSchema-instance" xsi:noNamespaceSchemaLocation="http://sumo.dlr.de/xsd/sumoConfiguration.xsd">

    <input>
        <net-file value="E:\txw\sumo-rl\nets\syc\1x1\Equal_entries_140\syc_4phases.net.xml"/>
        <route-files value="E:\txw\sumo-rl\nets\syc\1x1\Equal_entries_140\equal_entries_140.rou.xml"/>
        <additional-files value="E:\txw\sumo-rl\nets\syc\1x1\Equal_entries_140\1x1_outputs.add.xml"/>
    </input>

    <output>
        <fcd-output value="E:\txw\sumo-rl\nets\syc\1x1\Equal_entries_140\output/fcd_output.xml"/>
        <tripinfo-output value="E:\txw\sumo-rl\nets\syc\1x1\Equal_entries_140\output/tripinfo.out.xml"/>
    </output>

    <time>
        <begin value="0"/>
        <end value="1000"/>
    </time>

</configuration>
-->

<meandata xmlns:xsi="http://www.w3.org/2001/XMLSchema-instance" xsi:noNamespaceSchemaLocation="http://sumo.dlr.de/xsd/meandata_file.xsd">
    <interval begin="0.00" end="10.00" id="1">
        <edge id="e_t" sampledSeconds="27.00" traveltime="14.83" overlapTraveltime="15.22" density="14.48" laneDensity="4.83" occupancy="2.41" waitingTime="0.00" timeLoss="1.46" speed="12.57" speedRelative="0.91" departed="3" arrived="0" entered="0" left="0" laneChangedFrom="0" laneChangedTo="0"/>
        <edge id="n_t" sampledSeconds="27.00" traveltime="14.00" overlapTraveltime="14.38" density="14.48" laneDensity="4.83" occupancy="2.41" waitingTime="0.00" timeLoss="1.21" speed="13.31" speedRelative="0.96" departed="3" arrived="0" entered="0" left="0" laneChangedFrom="0" laneChangedTo="0"/>
        <edge id="s_t" sampledSeconds="27.00" traveltime="14.26" overlapTraveltime="14.65" density="14.48" laneDensity="4.83" occupancy="2.41" waitingTime="0.00" timeLoss="1.15" speed="13.07" speedRelative="0.94" departed="3" arrived="0" entered="0" left="0" laneChangedFrom="0" laneChangedTo="0"/>
        <edge id="t_e" sampledSeconds="0.00" departed="0" arrived="0" entered="0" left="0" laneChangedFrom="0" laneChangedTo="0"/>
        <edge id="t_n" sampledSeconds="0.00" departed="0" arrived="0" entered="0" left="0" laneChangedFrom="0" laneChangedTo="0"/>
        <edge id="t_s" sampledSeconds="0.00" departed="0" arrived="0" entered="0" left="0" laneChangedFrom="0" laneChangedTo="0"/>
        <edge id="t_w" sampledSeconds="0.00" departed="0" arrived="0" entered="0" left="0" laneChangedFrom="0" laneChangedTo="0"/>
        <edge id="w_t" sampledSeconds="27.00" traveltime="14.22" overlapTraveltime="14.60" density="14.48" laneDensity="4.83" occupancy="2.41" waitingTime="0.00" timeLoss="1.31" speed="13.11" speedRelative="0.94" departed="3" arrived="0" entered="0" left="0" laneChangedFrom="0" laneChangedTo="0"/>
    </interval>
    <interval begin="10.00" end="20.00" id="1">
        <edge id="e_t" sampledSeconds="22.53" traveltime="19.55" overlapTraveltime="20.20" density="12.09" laneDensity="4.03" occupancy="1.96" waitingTime="1.00" timeLoss="5.50" speed="9.47" speedRelative="0.68" departed="0" arrived="0" entered="0" left="2" laneChangedFrom="0" laneChangedTo="0"/>
        <edge id="n_t" sampledSeconds="26.85" traveltime="26.57" overlapTraveltime="27.41" density="14.41" laneDensity="4.80" occupancy="2.36" waitingTime="6.00" timeLoss="12.81" speed="6.98" speedRelative="0.50" departed="0" arrived="0" entered="0" left="1" laneChangedFrom="0" laneChangedTo="0"/>
        <edge id="s_t" sampledSeconds="29.10" traveltime="27.62" overlapTraveltime="28.70" density="15.61" laneDensity="5.20" occupancy="2.55" waitingTime="9.00" timeLoss="13.77" speed="6.67" speedRelative="0.48" departed="0" arrived="0" entered="0" left="1" laneChangedFrom="0" laneChangedTo="0"/>
        <edge id="t_e" sampledSeconds="4.72" traveltime="12.92" overlapTraveltime="13.27" density="2.53" laneDensity="0.84" occupancy="0.40" waitingTime="0.00" timeLoss="0.22" speed="14.43" speedRelative="1.04" departed="0" arrived="0" entered="2" left="0" laneChangedFrom="0" laneChangedTo="0"/>
        <edge id="t_n" sampledSeconds="3.70" traveltime="19.76" overlapTraveltime="20.29" density="1.99" laneDensity="0.66" occupancy="0.29" waitingTime="0.00" timeLoss="1.30" speed="9.43" speedRelative="0.68" departed="0" arrived="0" entered="1" left="0" laneChangedFrom="0" laneChangedTo="0"/>
        <edge id="t_s" sampledSeconds="3.31" traveltime="18.14" overlapTraveltime="18.62" density="1.77" laneDensity="0.59" occupancy="0.26" waitingTime="0.00" timeLoss="0.92" speed="10.28" speedRelative="0.74" departed="0" arrived="0" entered="1" left="0" laneChangedFrom="0" laneChangedTo="0"/>
        <edge id="t_w" sampledSeconds="3.58" traveltime="21.58" overlapTraveltime="22.16" density="1.92" laneDensity="0.64" occupancy="0.26" waitingTime="0.00" timeLoss="1.14" speed="8.64" speedRelative="0.62" departed="0" arrived="0" entered="2" left="0" laneChangedFrom="0" laneChangedTo="0"/>
        <edge id="w_t" sampledSeconds="19.90" traveltime="18.44" overlapTraveltime="19.14" density="10.68" laneDensity="3.56" occupancy="1.73" waitingTime="0.00" timeLoss="4.63" speed="10.00" speedRelative="0.72" departed="0" arrived="0" entered="0" left="2" laneChangedFrom="0" laneChangedTo="0"/>
    </interval>
    <interval begin="20.00" end="30.00" id="1">
        <edge id="e_t" sampledSeconds="19.00" traveltime="28.76" overlapTraveltime="29.53" density="10.19" laneDensity="3.40" occupancy="1.70" waitingTime="10.00" timeLoss="10.45" speed="6.48" speedRelative="0.47" departed="3" arrived="0" entered="0" left="0" laneChangedFrom="0" laneChangedTo="0"/>
        <edge id="n_t" sampledSeconds="29.00" traveltime="42.76" overlapTraveltime="43.91" density="15.56" laneDensity="5.19" occupancy="2.59" waitingTime="20.00" timeLoss="20.36" speed="4.36" speedRelative="0.31" departed="3" arrived="0" entered="0" left="0" laneChangedFrom="0" laneChangedTo="0"/>
        <edge id="s_t" sampledSeconds="29.00" traveltime="49.80" overlapTraveltime="51.13" density="15.56" laneDensity="5.19" occupancy="2.59" waitingTime="20.00" timeLoss="20.46" speed="3.74" speedRelative="0.27" departed="3" arrived="0" entered="0" left="0" laneChangedFrom="0" laneChangedTo="0"/>
        <edge id="t_e" sampledSeconds="18.46" traveltime="15.28" overlapTraveltime="15.64" density="9.90" laneDensity="3.30" occupancy="1.61" waitingTime="0.00" timeLoss="1.44" speed="12.24" speedRelative="0.88" departed="0" arrived="1" entered="0" left="0" laneChangedFrom="0" laneChangedTo="0"/>
        <edge id="t_n" sampledSeconds="10.00" traveltime="13.43" overlapTraveltime="13.79" density="5.36" laneDensity="1.79" occupancy="0.89" waitingTime="0.00" timeLoss="0.45" speed="13.88" speedRelative="1.00" departed="0" arrived="0" entered="0" left="0" laneChangedFrom="0" laneChangedTo="0"/>
        <edge id="t_s" sampledSeconds="10.00" traveltime="13.74" overlapTraveltime="14.11" density="5.36" laneDensity="1.79" occupancy="0.89" waitingTime="0.00" timeLoss="0.49" speed="13.56" speedRelative="0.98" departed="0" arrived="0" entered="0" left="0" laneChangedFrom="0" laneChangedTo="0"/>
        <edge id="t_w" sampledSeconds="20.00" traveltime="15.78" overlapTraveltime="16.20" density="10.73" laneDensity="3.58" occupancy="1.79" waitingTime="0.00" timeLoss="1.35" speed="11.81" speedRelative="0.85" departed="0" arrived="0" entered="0" left="0" laneChangedFrom="0" laneChangedTo="0"/>
        <edge id="w_t" sampledSeconds="19.00" traveltime="30.95" overlapTraveltime="31.78" density="10.19" laneDensity="3.40" occupancy="1.70" waitingTime="10.00" timeLoss="10.40" speed="6.02" speedRelative="0.43" departed="3" arrived="0" entered="0" left="0" laneChangedFrom="0" laneChangedTo="0"/>
    </interval>
    <interval begin="30.00" end="40.00" id="1">
        <edge id="e_t" sampledSeconds="40.00" traveltime="18.54" overlapTraveltime="19.56" density="21.46" laneDensity="7.15" occupancy="3.52" waitingTime="8.00" timeLoss="12.51" speed="9.79" speedRelative="0.70" departed="0" arrived="0" entered="0" left="1" laneChangedFrom="0" laneChangedTo="0"/>
        <edge id="n_t" sampledSeconds="50.00" traveltime="23.82" overlapTraveltime="24.46" density="26.82" laneDensity="8.94" occupancy="4.47" waitingTime="20.00" timeLoss="23.24" speed="7.83" speedRelative="0.56" departed="0" arrived="0" entered="0" left="0" laneChangedFrom="0" laneChangedTo="0"/>
        <edge id="s_t" sampledSeconds="50.00" traveltime="25.83" overlapTraveltime="26.53" density="26.82" laneDensity="8.94" occupancy="4.47" waitingTime="20.00" timeLoss="21.63" speed="7.22" speedRelative="0.52" departed="0" arrived="0" entered="0" left="0" laneChangedFrom="0" laneChangedTo="0"/>
        <edge id="t_e" sampledSeconds="8.00" traveltime="17.33" overlapTraveltime="17.78" density="4.29" laneDensity="1.43" occupancy="0.71" waitingTime="0.00" timeLoss="0.54" speed="10.77" speedRelative="0.78" departed="0" arrived="1" entered="0" left="0" laneChangedFrom="0" laneChangedTo="0"/>
        <edge id="t_n" sampledSeconds="1.00" traveltime="13.64" overlapTraveltime="14.00" density="0.54" laneDensity="0.18" occupancy="0.09" waitingTime="0.00" timeLoss="0.06" speed="13.67" speedRelative="0.98" departed="0" arrived="1" entered="0" left="0" laneChangedFrom="0" laneChangedTo="0"/>
        <edge id="t_s" sampledSeconds="1.61" traveltime="13.84" overlapTraveltime="14.11" density="0.86" laneDensity="0.29" occupancy="0.13" waitingTime="0.00" timeLoss="0.08" speed="13.57" speedRelative="0.98" departed="0" arrived="1" entered="0" left="0" laneChangedFrom="0" laneChangedTo="0"/>
        <edge id="t_w" sampledSeconds="9.00" traveltime="15.54" overlapTraveltime="15.97" density="4.83" laneDensity="1.61" occupancy="0.80" waitingTime="0.00" timeLoss="0.46" speed="11.99" speedRelative="0.86" departed="0" arrived="2" entered="0" left="0" laneChangedFrom="0" laneChangedTo="0"/>
        <edge id="w_t" sampledSeconds="40.00" traveltime="19.16" overlapTraveltime="20.20" density="21.46" laneDensity="7.15" occupancy="3.52" waitingTime="8.00" timeLoss="11.31" speed="9.48" speedRelative="0.68" departed="0" arrived="0" entered="0" left="1" laneChangedFrom="0" laneChangedTo="0"/>
    </interval>
    <interval begin="40.00" end="50.00" id="1">
        <edge id="e_t" sampledSeconds="15.82" traveltime="78.01" overlapTraveltime="68.30" density="8.49" laneDensity="2.83" occupancy="1.34" waitingTime="9.00" timeLoss="11.90" speed="2.80" speedRelative="0.20" departed="0" arrived="0" entered="0" left="2" laneChangedFrom="0" laneChangedTo="0"/>
        <edge id="n_t" sampledSeconds="40.79" traveltime="815.42" overlapTraveltime="551.44" density="21.88" laneDensity="7.29" occupancy="3.61" waitingTime="36.00" timeLoss="39.42" speed="0.35" speedRelative="0.02" departed="0" arrived="0" entered="0" left="1" laneChangedFrom="0" laneChangedTo="0"/>
        <edge id="s_t" sampledSeconds="42.94" traveltime="136.03" overlapTraveltime="131.33" density="23.04" laneDensity="7.68" occupancy="3.80" waitingTime="34.00" timeLoss="37.57" speed="1.46" speedRelative="0.10" departed="0" arrived="0" entered="0" left="1" laneChangedFrom="0" laneChangedTo="0"/>
        <edge id="t_e" sampledSeconds="6.31" traveltime="17.77" overlapTraveltime="18.24" density="3.39" laneDensity="1.13" occupancy="0.53" waitingTime="0.00" timeLoss="1.25" speed="10.49" speedRelative="0.76" departed="0" arrived="0" entered="1" left="0" laneChangedFrom="0" laneChangedTo="0"/>
        <edge id="t_n" sampledSeconds="18.44" traveltime="16.71" overlapTraveltime="17.16" density="9.89" laneDensity="3.30" occupancy="1.57" waitingTime="0.00" timeLoss="2.38" speed="11.16" speedRelative="0.80" departed="0" arrived="0" entered="3" left="0" laneChangedFrom="0" laneChangedTo="0"/>
        <edge id="t_s" sampledSeconds="17.68" traveltime="15.79" overlapTraveltime="16.22" density="9.48" laneDensity="3.16" occupancy="1.50" waitingTime="0.00" timeLoss="1.86" speed="11.80" speedRelative="0.85" departed="0" arrived="0" entered="3" left="0" laneChangedFrom="0" laneChangedTo="0"/>
        <edge id="t_w" sampledSeconds="8.60" traveltime="15.43" overlapTraveltime="15.84" density="4.61" laneDensity="1.54" occupancy="0.73" waitingTime="0.00" timeLoss="1.94" speed="12.08" speedRelative="0.87" departed="0" arrived="0" entered="1" left="0" laneChangedFrom="0" laneChangedTo="0"/>
        <edge id="w_t" sampledSeconds="17.27" traveltime="52.22" overlapTraveltime="50.49" density="9.26" laneDensity="3.09" occupancy="1.46" waitingTime="6.00" timeLoss="11.62" speed="3.79" speedRelative="0.27" departed="0" arrived="0" entered="0" left="2" laneChangedFrom="0" laneChangedTo="0"/>
    </interval>
    <interval begin="50.00" end="60.00" id="1">
        <edge id="e_t" sampledSeconds="31.00" traveltime="18.59" overlapTraveltime="19.09" density="16.63" laneDensity="5.54" occupancy="2.77" waitingTime="10.00" timeLoss="10.89" speed="10.03" speedRelative="0.72" departed="3" arrived="0" entered="0" left="0" laneChangedFrom="0" laneChangedTo="0"/>
        <edge id="n_t" sampledSeconds="61.00" traveltime="47.29" overlapTraveltime="48.56" density="32.73" laneDensity="10.91" occupancy="5.45" waitingTime="40.00" timeLoss="41.15" speed="3.94" speedRelative="0.28" departed="3" arrived="0" entered="0" left="0" laneChangedFrom="0" laneChangedTo="0"/>
        <edge id="s_t" sampledSeconds="61.00" traveltime="40.59" overlapTraveltime="41.68" density="32.73" laneDensity="10.91" occupancy="5.45" waitingTime="40.00" timeLoss="40.92" speed="4.59" speedRelative="0.33" departed="3" arrived="0" entered="0" left="0" laneChangedFrom="0" laneChangedTo="0"/>
        <edge id="t_e" sampledSeconds="10.00" traveltime="15.21" overlapTraveltime="15.62" density="5.36" laneDensity="1.79" occupancy="0.89" waitingTime="0.00" timeLoss="0.63" speed="12.25" speedRelative="0.88" departed="0" arrived="1" entered="0" left="0" laneChangedFrom="0" laneChangedTo="0"/>
        <edge id="t_n" sampledSeconds="29.91" traveltime="15.97" overlapTraveltime="16.40" density="16.04" laneDensity="5.35" occupancy="2.64" waitingTime="0.00" timeLoss="2.91" speed="11.67" speedRelative="0.84" departed="0" arrived="2" entered="0" left="0" laneChangedFrom="0" laneChangedTo="0"/>
        <edge id="t_s" sampledSeconds="27.68" traveltime="15.18" overlapTraveltime="15.57" density="14.85" laneDensity="4.95" occupancy="2.44" waitingTime="0.00" timeLoss="1.82" speed="12.29" speedRelative="0.89" departed="0" arrived="2" entered="0" left="0" laneChangedFrom="0" laneChangedTo="0"/>
        <edge id="t_w" sampledSeconds="5.94" traveltime="12.68" overlapTraveltime="12.98" density="3.18" laneDensity="1.06" occupancy="0.52" waitingTime="0.00" timeLoss="0.32" speed="14.75" speedRelative="1.06" departed="0" arrived="1" entered="0" left="0" laneChangedFrom="0" laneChangedTo="0"/>
        <edge id="w_t" sampledSeconds="31.00" traveltime="19.53" overlapTraveltime="20.05" density="16.63" laneDensity="5.54" occupancy="2.77" waitingTime="10.00" timeLoss="10.96" speed="9.54" speedRelative="0.69" departed="3" arrived="0" entered="0" left="0" laneChangedFrom="0" laneChangedTo="0"/>
    </interval>
    <interval begin="60.00" end="70.00" id="1">
        <edge id="e_t" sampledSeconds="33.61" traveltime="26.89" overlapTraveltime="27.43" density="18.03" laneDensity="6.01" occupancy="2.95" waitingTime="11.00" timeLoss="17.64" speed="6.98" speedRelative="0.50" departed="0" arrived="0" entered="0" left="2" laneChangedFrom="0" laneChangedTo="0"/>
        <edge id="n_t" sampledSeconds="70.00" traveltime="47.54" overlapTraveltime="48.61" density="37.55" laneDensity="12.52" occupancy="6.22" waitingTime="40.00" timeLoss="46.67" speed="3.94" speedRelative="0.28" departed="0" arrived="0" entered="0" left="1" laneChangedFrom="0" laneChangedTo="0"/>
        <edge id="s_t" sampledSeconds="69.07" traveltime="54.86" overlapTraveltime="55.84" density="37.06" laneDensity="12.35" occupancy="6.14" waitingTime="46.00" timeLoss="51.19" speed="3.43" speedRelative="0.25" departed="0" arrived="0" entered="0" left="1" laneChangedFrom="0" laneChangedTo="0"/>
        <edge id="t_e" sampledSeconds="0.23" traveltime="32.12" overlapTraveltime="32.99" density="0.12" laneDensity="0.04" occupancy="0.00" waitingTime="0.00" timeLoss="0.13" speed="5.80" speedRelative="0.42" departed="0" arrived="0" entered="1" left="0" laneChangedFrom="0" laneChangedTo="0"/>
        <edge id="t_n" sampledSeconds="6.02" traveltime="16.60" overlapTraveltime="16.88" density="3.23" laneDensity="1.08" occupancy="0.47" waitingTime="0.00" timeLoss="1.65" speed="11.34" speedRelative="0.82" departed="0" arrived="1" entered="2" left="0" laneChangedFrom="0" laneChangedTo="0"/>
        <edge id="t_s" sampledSeconds="3.42" traveltime="19.92" overlapTraveltime="19.98" density="1.83" laneDensity="0.61" occupancy="0.25" waitingTime="0.00" timeLoss="0.86" speed="9.58" speedRelative="0.69" departed="0" arrived="1" entered="2" left="0" laneChangedFrom="0" laneChangedTo="0"/>
        <edge id="t_w" sampledSeconds="0.00" departed="0" arrived="0" entered="0" left="0" laneChangedFrom="0" laneChangedTo="0"/>
        <edge id="w_t" sampledSeconds="34.88" traveltime="25.78" overlapTraveltime="26.76" density="18.71" laneDensity="6.24" occupancy="3.04" waitingTime="11.00" timeLoss="17.28" speed="7.15" speedRelative="0.51" departed="0" arrived="0" entered="0" left="2" laneChangedFrom="0" laneChangedTo="0"/>
    </interval>
    <interval begin="70.00" end="80.00" id="1">
        <edge id="e_t" sampledSeconds="23.00" traveltime="101.19" overlapTraveltime="103.91" density="12.34" laneDensity="4.11" occupancy="2.06" waitingTime="20.00" timeLoss="20.12" speed="1.84" speedRelative="0.13" departed="3" arrived="0" entered="0" left="0" laneChangedFrom="0" laneChangedTo="0"/>
        <edge id="n_t" sampledSeconds="60.98" traveltime="192.76" overlapTraveltime="179.18" density="32.71" laneDensity="10.90" occupancy="5.38" waitingTime="50.00" timeLoss="56.52" speed="1.07" speedRelative="0.08" departed="3" arrived="0" entered="0" left="2" laneChangedFrom="0" laneChangedTo="0"/>
        <edge id="s_t" sampledSeconds="61.14" traveltime="223.44" overlapTraveltime="213.41" density="32.80" laneDensity="10.93" occupancy="5.41" waitingTime="51.00" timeLoss="57.04" speed="0.90" speedRelative="0.06" departed="3" arrived="0" entered="0" left="1" laneChangedFrom="0" laneChangedTo="0"/>
        <edge id="t_e" sampledSeconds="10.00" traveltime="16.35" overlapTraveltime="16.79" density="5.36" laneDensity="1.79" occupancy="0.88" waitingTime="0.00" timeLoss="1.19" speed="11.40" speedRelative="0.82" departed="0" arrived="0" entered="0" left="0" laneChangedFrom="0" laneChangedTo="0"/>
        <edge id="t_n" sampledSeconds="19.64" traveltime="11.91" overlapTraveltime="12.22" density="10.54" laneDensity="3.51" occupancy="1.74" waitingTime="0.00" timeLoss="0.80" speed="15.66" speedRelative="1.13" departed="0" arrived="1" entered="0" left="0" laneChangedFrom="0" laneChangedTo="0"/>
        <edge id="t_s" sampledSeconds="20.00" traveltime="14.48" overlapTraveltime="14.87" density="10.73" laneDensity="3.58" occupancy="1.77" waitingTime="0.00" timeLoss="1.69" speed="12.87" speedRelative="0.93" departed="0" arrived="0" entered="0" left="0" laneChangedFrom="0" laneChangedTo="0"/>
        <edge id="t_w" sampledSeconds="9.21" traveltime="17.18" overlapTraveltime="17.64" density="4.94" laneDensity="1.65" occupancy="0.79" waitingTime="0.00" timeLoss="0.96" speed="10.85" speedRelative="0.78" departed="0" arrived="0" entered="1" left="0" laneChangedFrom="0" laneChangedTo="0"/>
        <edge id="w_t" sampledSeconds="23.00" traveltime="107.67" overlapTraveltime="110.55" density="12.34" laneDensity="4.11" occupancy="2.06" waitingTime="20.00" timeLoss="20.13" speed="1.73" speedRelative="0.12" departed="3" arrived="0" entered="0" left="0" laneChangedFrom="0" laneChangedTo="0"/>
    </interval>
    <interval begin="80.00" end="90.00" id="1">
        <edge id="e_t" sampledSeconds="50.00" traveltime="22.21" overlapTraveltime="22.81" density="26.82" laneDensity="8.94" occupancy="4.47" waitingTime="20.00" timeLoss="21.44" speed="8.39" speedRelative="0.60" departed="0" arrived="0" entered="0" left="0" laneChangedFrom="0" laneChangedTo="0"/>
        <edge id="n_t" sampledSeconds="62.90" traveltime="26.62" overlapTraveltime="27.26" density="33.75" laneDensity="11.25" occupancy="5.58" waitingTime="30.00" timeLoss="33.23" speed="7.02" speedRelative="0.51" departed="0" arrived="0" entered="0" left="1" laneChangedFrom="0" laneChangedTo="0"/>
        <edge id="s_t" sampledSeconds="64.04" traveltime="29.24" overlapTraveltime="29.96" density="34.36" laneDensity="11.45" occupancy="5.66" waitingTime="30.00" timeLoss="33.62" speed="6.39" speedRelative="0.46" departed="0" arrived="0" entered="0" left="2" laneChangedFrom="0" laneChangedTo="0"/>
        <edge id="t_e" sampledSeconds="6.00" traveltime="15.25" overlapTraveltime="15.66" density="3.22" laneDensity="1.07" occupancy="0.53" waitingTime="0.00" timeLoss="0.33" speed="12.22" speedRelative="0.88" departed="0" arrived="1" entered="0" left="0" laneChangedFrom="0" laneChangedTo="0"/>
        <edge id="t_n" sampledSeconds="22.52" traveltime="14.68" overlapTraveltime="15.01" density="12.08" laneDensity="4.03" occupancy="1.94" waitingTime="0.00" timeLoss="2.10" speed="12.75" speedRelative="0.92" departed="0" arrived="1" entered="3" left="0" laneChangedFrom="0" laneChangedTo="0"/>
        <edge id="t_s" sampledSeconds="29.87" traveltime="14.17" overlapTraveltime="14.55" density="16.02" laneDensity="5.34" occupancy="2.61" waitingTime="0.00" timeLoss="1.64" speed="13.15" speedRelative="0.95" departed="0" arrived="2" entered="3" left="0" laneChangedFrom="0" laneChangedTo="0"/>
        <edge id="t_w" sampledSeconds="7.99" traveltime="16.24" overlapTraveltime="16.71" density="4.29" laneDensity="1.43" occupancy="0.69" waitingTime="0.00" timeLoss="0.44" speed="11.45" speedRelative="0.82" departed="0" arrived="1" entered="0" left="0" laneChangedFrom="0" laneChangedTo="0"/>
        <edge id="w_t" sampledSeconds="50.00" traveltime="23.72" overlapTraveltime="24.35" density="26.82" laneDensity="8.94" occupancy="4.47" waitingTime="20.00" timeLoss="21.62" speed="7.86" speedRelative="0.57" departed="0" arrived="0" entered="0" left="0" laneChangedFrom="0" laneChangedTo="0"/>
    </interval>
    <interval begin="90.00" end="100.00" id="1">
        <edge id="e_t" sampledSeconds="42.89" traveltime="120.95" overlapTraveltime="117.38" density="23.01" laneDensity="7.67" occupancy="3.80" waitingTime="29.00" timeLoss="37.70" speed="1.63" speedRelative="0.12" departed="0" arrived="0" entered="0" left="1" laneChangedFrom="0" laneChangedTo="0"/>
        <edge id="n_t" sampledSeconds="45.18" traveltime="149.99" overlapTraveltime="133.33" density="24.24" laneDensity="8.08" occupancy="3.99" waitingTime="39.00" timeLoss="40.26" speed="1.44" speedRelative="0.10" departed="0" arrived="0" entered="0" left="2" laneChangedFrom="0" laneChangedTo="0"/>
        <edge id="s_t" sampledSeconds="47.12" traveltime="88.28" overlapTraveltime="84.32" density="25.28" laneDensity="8.43" occupancy="4.16" waitingTime="35.00" timeLoss="38.28" speed="2.27" speedRelative="0.16" departed="0" arrived="0" entered="0" left="2" laneChangedFrom="0" laneChangedTo="0"/>
        <edge id="t_e" sampledSeconds="4.62" traveltime="21.52" overlapTraveltime="22.10" density="2.48" laneDensity="0.83" occupancy="0.37" waitingTime="0.00" timeLoss="1.61" speed="8.66" speedRelative="0.62" departed="0" arrived="0" entered="1" left="0" laneChangedFrom="0" laneChangedTo="0"/>
        <edge id="t_n" sampledSeconds="37.06" traveltime="15.28" overlapTraveltime="15.69" density="19.88" laneDensity="6.63" occupancy="3.23" waitingTime="0.00" timeLoss="5.13" speed="12.20" speedRelative="0.88" departed="0" arrived="2" entered="2" left="0" laneChangedFrom="0" laneChangedTo="0"/>
        <edge id="t_s" sampledSeconds="28.78" traveltime="15.35" overlapTraveltime="15.70" density="15.44" laneDensity="5.15" occupancy="2.49" waitingTime="0.00" timeLoss="2.10" speed="12.19" speedRelative="0.88" departed="0" arrived="2" entered="2" left="0" laneChangedFrom="0" laneChangedTo="0"/>
        <edge id="t_w" sampledSeconds="7.77" traveltime="13.99" overlapTraveltime="14.36" density="4.17" laneDensity="1.39" occupancy="0.66" waitingTime="0.00" timeLoss="1.45" speed="13.33" speedRelative="0.96" departed="0" arrived="0" entered="1" left="0" laneChangedFrom="0" laneChangedTo="0"/>
        <edge id="w_t" sampledSeconds="46.21" traveltime="89.53" overlapTraveltime="89.19" density="24.79" laneDensity="8.26" occupancy="4.09" waitingTime="32.00" timeLoss="38.25" speed="2.15" speedRelative="0.15" departed="0" arrived="0" entered="0" left="1" laneChangedFrom="0" laneChangedTo="0"/>
    </interval>
    <interval begin="100.00" end="110.00" id="1">
        <edge id="e_t" sampledSeconds="58.00" traveltime="47.01" overlapTraveltime="48.27" density="31.12" laneDensity="10.37" occupancy="5.19" waitingTime="40.00" timeLoss="40.87" speed="3.97" speedRelative="0.29" departed="3" arrived="0" entered="0" left="0" laneChangedFrom="0" laneChangedTo="0"/>
        <edge id="n_t" sampledSeconds="58.00" traveltime="53.27" overlapTraveltime="54.70" density="31.12" laneDensity="10.37" occupancy="5.19" waitingTime="40.00" timeLoss="41.03" speed="3.50" speedRelative="0.25" departed="3" arrived="0" entered="0" left="0" laneChangedFrom="0" laneChangedTo="0"/>
        <edge id="s_t" sampledSeconds="58.00" traveltime="41.21" overlapTraveltime="42.32" density="31.12" laneDensity="10.37" occupancy="5.19" waitingTime="40.00" timeLoss="40.73" speed="4.52" speedRelative="0.33" departed="3" arrived="0" entered="0" left="0" laneChangedFrom="0" laneChangedTo="0"/>
        <edge id="t_e" sampledSeconds="10.00" traveltime="14.74" overlapTraveltime="15.14" density="5.36" laneDensity="1.79" occupancy="0.89" waitingTime="0.00" timeLoss="0.49" speed="12.64" speedRelative="0.91" departed="0" arrived="0" entered="0" left="0" laneChangedFrom="0" laneChangedTo="0"/>
        <edge id="t_n" sampledSeconds="16.76" traveltime="13.07" overlapTraveltime="13.41" density="8.99" laneDensity="3.00" occupancy="1.47" waitingTime="0.00" timeLoss="0.58" speed="14.27" speedRelative="1.03" departed="0" arrived="3" entered="0" left="0" laneChangedFrom="0" laneChangedTo="0"/>
        <edge id="t_s" sampledSeconds="22.00" traveltime="15.21" overlapTraveltime="15.61" density="11.80" laneDensity="3.93" occupancy="1.95" waitingTime="0.00" timeLoss="1.05" speed="12.26" speedRelative="0.88" departed="0" arrived="2" entered="0" left="0" laneChangedFrom="0" laneChangedTo="0"/>
        <edge id="t_w" sampledSeconds="5.53" traveltime="11.75" overlapTraveltime="12.06" density="2.97" laneDensity="0.99" occupancy="0.48" waitingTime="0.00" timeLoss="0.17" speed="15.88" speedRelative="1.14" departed="0" arrived="1" entered="0" left="0" laneChangedFrom="0" laneChangedTo="0"/>
        <edge id="w_t" sampledSeconds="58.00" traveltime="43.83" overlapTraveltime="45.01" density="31.12" laneDensity="10.37" occupancy="5.19" waitingTime="40.00" timeLoss="41.01" speed="4.25" speedRelative="0.31" departed="3" arrived="0" entered="0" left="0" laneChangedFrom="0" laneChangedTo="0"/>
    </interval>
    <interval begin="110.00" end="120.00" id="1">
        <edge id="e_t" sampledSeconds="68.96" traveltime="45.22" overlapTraveltime="46.18" density="36.99" laneDensity="12.33" occupancy="6.13" waitingTime="42.00" timeLoss="47.11" speed="4.14" speedRelative="0.30" departed="0" arrived="0" entered="0" left="1" laneChangedFrom="0" laneChangedTo="0"/>
        <edge id="n_t" sampledSeconds="65.26" traveltime="35.27" overlapTraveltime="36.53" density="35.01" laneDensity="11.67" occupancy="5.74" waitingTime="22.00" timeLoss="36.77" speed="5.24" speedRelative="0.38" departed="0" arrived="0" entered="0" left="2" laneChangedFrom="0" laneChangedTo="0"/>
        <edge id="s_t" sampledSeconds="61.92" traveltime="38.45" overlapTraveltime="39.38" density="33.22" laneDensity="11.07" occupancy="5.42" waitingTime="26.00" timeLoss="40.69" speed="4.86" speedRelative="0.35" departed="0" arrived="0" entered="0" left="3" laneChangedFrom="0" laneChangedTo="0"/>
        <edge id="t_e" sampledSeconds="4.60" traveltime="17.69" overlapTraveltime="17.89" density="2.47" laneDensity="0.82" occupancy="0.34" waitingTime="0.00" timeLoss="1.07" speed="10.70" speedRelative="0.77" departed="0" arrived="1" entered="2" left="0" laneChangedFrom="0" laneChangedTo="0"/>
        <edge id="t_n" sampledSeconds="0.37" traveltime="30.92" overlapTraveltime="31.75" density="0.20" laneDensity="0.07" occupancy="0.01" waitingTime="0.00" timeLoss="0.21" speed="6.03" speedRelative="0.43" departed="0" arrived="0" entered="1" left="0" laneChangedFrom="0" laneChangedTo="0"/>
        <edge id="t_s" sampledSeconds="3.89" traveltime="15.35" overlapTraveltime="15.78" density="2.09" laneDensity="0.70" occupancy="0.33" waitingTime="0.00" timeLoss="0.12" speed="12.13" speedRelative="0.87" departed="0" arrived="1" entered="0" left="0" laneChangedFrom="0" laneChangedTo="0"/>
        <edge id="t_w" sampledSeconds="1.70" traveltime="16.05" overlapTraveltime="16.48" density="0.91" laneDensity="0.30" occupancy="0.13" waitingTime="0.00" timeLoss="0.39" speed="11.62" speedRelative="0.84" departed="0" arrived="0" entered="1" left="0" laneChangedFrom="0" laneChangedTo="0"/>
        <edge id="w_t" sampledSeconds="69.45" traveltime="48.18" overlapTraveltime="49.19" density="37.26" laneDensity="12.42" occupancy="6.17" waitingTime="41.00" timeLoss="49.92" speed="3.89" speedRelative="0.28" departed="0" arrived="0" entered="0" left="1" laneChangedFrom="0" laneChangedTo="0"/>
    </interval>
    <interval begin="120.00" end="130.00" id="1">