<?xml version="1.0" encoding="UTF-8"?>

<!-- generated on 2025-08-18 16:45:51 by Eclipse SUMO GUI Version 1.16.0
<configuration xmlns:xsi="http://www.w3.org/2001/XMLSchema-instance" xsi:noNamespaceSchemaLocation="http://sumo.dlr.de/xsd/sumoConfiguration.xsd">

    <input>
        <net-file value="E:\txw\sumo-rl\nets\syc\1x1\Equal_entries_140\syc_4phases.net.xml"/>
        <route-files value="E:\txw\sumo-rl\nets\syc\1x1\Equal_entries_140\equal_entries_140.rou.xml"/>
        <additional-files value="E:\txw\sumo-rl\nets\syc\1x1\Equal_entries_140\1x1_outputs.add.xml"/>
    </input>

    <output>
        <fcd-output value="E:\txw\sumo-rl\nets\syc\1x1\Equal_entries_140\output/fcd_output.xml"/>
        <tripinfo-output value="E:\txw\sumo-rl\nets\syc\1x1\Equal_entries_140\output/tripinfo.out.xml"/>
    </output>

    <time>
        <begin value="0"/>
        <end value="1000"/>
    </time>

</configuration>
-->

<fcd-export xmlns:xsi="http://www.w3.org/2001/XMLSchema-instance" xsi:noNamespaceSchemaLocation="http://sumo.dlr.de/xsd/fcd_file.xsd">
    <timestep time="0.00">
        <vehicle id="flow_en.0" x="194.90" y="8.00" angle="270.00" type="DEFAULT_VEHTYPE" speed="14.53" pos="5.10" lane="e_t_0" slope="0.00"/>
        <vehicle id="flow_es.0" x="194.90" y="1.60" angle="270.00" type="DEFAULT_VEHTYPE" speed="13.03" pos="5.10" lane="e_t_2" slope="0.00"/>
        <vehicle id="flow_ew.0" x="194.90" y="4.80" angle="270.00" type="DEFAULT_VEHTYPE" speed="12.31" pos="5.10" lane="e_t_1" slope="0.00"/>
        <vehicle id="flow_ne.0" x="-1.60" y="194.90" angle="180.00" type="DEFAULT_VEHTYPE" speed="14.03" pos="5.10" lane="n_t_2" slope="0.00"/>
        <vehicle id="flow_ns.0" x="-4.80" y="194.90" angle="180.00" type="DEFAULT_VEHTYPE" speed="14.72" pos="5.10" lane="n_t_1" slope="0.00"/>
        <vehicle id="flow_nw.0" x="-8.00" y="194.90" angle="180.00" type="DEFAULT_VEHTYPE" speed="13.03" pos="5.10" lane="n_t_0" slope="0.00"/>
        <vehicle id="flow_se.0" x="8.00" y="-194.90" angle="0.00" type="DEFAULT_VEHTYPE" speed="11.54" pos="5.10" lane="s_t_0" slope="0.00"/>
        <vehicle id="flow_sn.0" x="4.80" y="-194.90" angle="0.00" type="DEFAULT_VEHTYPE" speed="14.31" pos="5.10" lane="s_t_1" slope="0.00"/>
        <vehicle id="flow_sw.0" x="1.60" y="-194.90" angle="0.00" type="DEFAULT_VEHTYPE" speed="15.04" pos="5.10" lane="s_t_2" slope="0.00"/>
        <vehicle id="flow_we.0" x="-194.90" y="-4.80" angle="90.00" type="DEFAULT_VEHTYPE" speed="15.15" pos="5.10" lane="w_t_1" slope="0.00"/>
        <vehicle id="flow_wn.0" x="-194.90" y="-1.60" angle="90.00" type="DEFAULT_VEHTYPE" speed="11.90" pos="5.10" lane="w_t_2" slope="0.00"/>
        <vehicle id="flow_ws.0" x="-194.90" y="-8.00" angle="90.00" type="DEFAULT_VEHTYPE" speed="14.26" pos="5.10" lane="w_t_0" slope="0.00"/>
    </timestep>
    <timestep time="1.00">
        <vehicle id="flow_en.0" x="181.63" y="8.00" angle="270.00" type="DEFAULT_VEHTYPE" speed="13.27" pos="18.37" lane="e_t_0" slope="0.00"/>
        <vehicle id="flow_es.0" x="182.46" y="1.60" angle="270.00" type="DEFAULT_VEHTYPE" speed="12.44" pos="17.54" lane="e_t_2" slope="0.00"/>
        <vehicle id="flow_ew.0" x="183.48" y="4.80" angle="270.00" type="DEFAULT_VEHTYPE" speed="11.42" pos="16.52" lane="e_t_1" slope="0.00"/>
        <vehicle id="flow_ne.0" x="-1.60" y="182.09" angle="180.00" type="DEFAULT_VEHTYPE" speed="12.81" pos="17.91" lane="n_t_2" slope="0.00"/>
        <vehicle id="flow_ns.0" x="-4.80" y="180.57" angle="180.00" type="DEFAULT_VEHTYPE" speed="14.33" pos="19.43" lane="n_t_1" slope="0.00"/>
        <vehicle id="flow_nw.0" x="-8.00" y="182.51" angle="180.00" type="DEFAULT_VEHTYPE" speed="12.39" pos="17.49" lane="n_t_0" slope="0.00"/>
        <vehicle id="flow_se.0" x="8.00" y="-183.64" angle="0.00" type="DEFAULT_VEHTYPE" speed="11.26" pos="16.36" lane="s_t_0" slope="0.00"/>
        <vehicle id="flow_sn.0" x="4.80" y="-181.83" angle="0.00" type="DEFAULT_VEHTYPE" speed="13.07" pos="18.17" lane="s_t_1" slope="0.00"/>
        <vehicle id="flow_sw.0" x="1.60" y="-180.80" angle="0.00" type="DEFAULT_VEHTYPE" speed="14.10" pos="19.20" lane="s_t_2" slope="0.00"/>
        <vehicle id="flow_we.0" x="-180.81" y="-4.80" angle="90.00" type="DEFAULT_VEHTYPE" speed="14.09" pos="19.19" lane="w_t_1" slope="0.00"/>
        <vehicle id="flow_wn.0" x="-183.35" y="-1.60" angle="90.00" type="DEFAULT_VEHTYPE" speed="11.55" pos="16.65" lane="w_t_2" slope="0.00"/>
        <vehicle id="flow_ws.0" x="-181.06" y="-8.00" angle="90.00" type="DEFAULT_VEHTYPE" speed="13.84" pos="18.94" lane="w_t_0" slope="0.00"/>
    </timestep>
    <timestep time="2.00">
        <vehicle id="flow_en.0" x="167.65" y="8.00" angle="270.00" type="DEFAULT_VEHTYPE" speed="13.99" pos="32.35" lane="e_t_0" slope="0.00"/>
        <vehicle id="flow_es.0" x="170.21" y="1.60" angle="270.00" type="DEFAULT_VEHTYPE" speed="12.25" pos="29.79" lane="e_t_2" slope="0.00"/>
        <vehicle id="flow_ew.0" x="171.58" y="4.80" angle="270.00" type="DEFAULT_VEHTYPE" speed="11.90" pos="28.42" lane="e_t_1" slope="0.00"/>
        <vehicle id="flow_ne.0" x="-1.60" y="168.13" angle="180.00" type="DEFAULT_VEHTYPE" speed="13.95" pos="31.87" lane="n_t_2" slope="0.00"/>
        <vehicle id="flow_ns.0" x="-4.80" y="166.44" angle="180.00" type="DEFAULT_VEHTYPE" speed="14.14" pos="33.56" lane="n_t_1" slope="0.00"/>
        <vehicle id="flow_nw.0" x="-8.00" y="169.59" angle="180.00" type="DEFAULT_VEHTYPE" speed="12.92" pos="30.41" lane="n_t_0" slope="0.00"/>
        <vehicle id="flow_se.0" x="8.00" y="-172.23" angle="0.00" type="DEFAULT_VEHTYPE" speed="11.41" pos="27.77" lane="s_t_0" slope="0.00"/>
        <vehicle id="flow_sn.0" x="4.80" y="-168.62" angle="0.00" type="DEFAULT_VEHTYPE" speed="13.22" pos="31.38" lane="s_t_1" slope="0.00"/>
        <vehicle id="flow_sw.0" x="1.60" y="-165.99" angle="0.00" type="DEFAULT_VEHTYPE" speed="14.80" pos="34.01" lane="s_t_2" slope="0.00"/>
        <vehicle id="flow_we.0" x="-166.86" y="-4.80" angle="90.00" type="DEFAULT_VEHTYPE" speed="13.95" pos="33.14" lane="w_t_1" slope="0.00"/>
        <vehicle id="flow_wn.0" x="-172.18" y="-1.60" angle="90.00" type="DEFAULT_VEHTYPE" speed="11.16" pos="27.82" lane="w_t_2" slope="0.00"/>
        <vehicle id="flow_ws.0" x="-166.97" y="-8.00" angle="90.00" type="DEFAULT_VEHTYPE" speed="14.10" pos="33.03" lane="w_t_0" slope="0.00"/>
    </timestep>
    <timestep time="3.00">
        <vehicle id="flow_en.0" x="154.13" y="8.00" angle="270.00" type="DEFAULT_VEHTYPE" speed="13.52" pos="45.87" lane="e_t_0" slope="0.00"/>
        <vehicle id="flow_es.0" x="158.25" y="1.60" angle="270.00" type="DEFAULT_VEHTYPE" speed="11.96" pos="41.75" lane="e_t_2" slope="0.00"/>
        <vehicle id="flow_ew.0" x="160.42" y="4.80" angle="270.00" type="DEFAULT_VEHTYPE" speed="11.16" pos="39.58" lane="e_t_1" slope="0.00"/>
        <vehicle id="flow_ne.0" x="-1.60" y="154.35" angle="180.00" type="DEFAULT_VEHTYPE" speed="13.78" pos="45.65" lane="n_t_2" slope="0.00"/>
        <vehicle id="flow_ns.0" x="-4.80" y="151.73" angle="180.00" type="DEFAULT_VEHTYPE" speed="14.71" pos="48.27" lane="n_t_1" slope="0.00"/>
        <vehicle id="flow_nw.0" x="-8.00" y="157.78" angle="180.00" type="DEFAULT_VEHTYPE" speed="11.81" pos="42.22" lane="n_t_0" slope="0.00"/>
        <vehicle id="flow_se.0" x="8.00" y="-161.56" angle="0.00" type="DEFAULT_VEHTYPE" speed="10.67" pos="38.44" lane="s_t_0" slope="0.00"/>
        <vehicle id="flow_sn.0" x="4.80" y="-155.45" angle="0.00" type="DEFAULT_VEHTYPE" speed="13.17" pos="44.55" lane="s_t_1" slope="0.00"/>
        <vehicle id="flow_sw.0" x="1.60" y="-150.98" angle="0.00" type="DEFAULT_VEHTYPE" speed="15.02" pos="49.02" lane="s_t_2" slope="0.00"/>
        <vehicle id="flow_we.0" x="-152.26" y="-4.80" angle="90.00" type="DEFAULT_VEHTYPE" speed="14.59" pos="47.74" lane="w_t_1" slope="0.00"/>
        <vehicle id="flow_wn.0" x="-160.93" y="-1.60" angle="90.00" type="DEFAULT_VEHTYPE" speed="11.25" pos="39.07" lane="w_t_2" slope="0.00"/>
        <vehicle id="flow_ws.0" x="-153.14" y="-8.00" angle="90.00" type="DEFAULT_VEHTYPE" speed="13.83" pos="46.86" lane="w_t_0" slope="0.00"/>
    </timestep>
    <timestep time="4.00">
        <vehicle id="flow_en.0" x="140.34" y="8.00" angle="270.00" type="DEFAULT_VEHTYPE" speed="13.79" pos="59.66" lane="e_t_0" slope="0.00"/>
        <vehicle id="flow_es.0" x="145.40" y="1.60" angle="270.00" type="DEFAULT_VEHTYPE" speed="12.85" pos="54.60" lane="e_t_2" slope="0.00"/>
        <vehicle id="flow_ew.0" x="149.30" y="4.80" angle="270.00" type="DEFAULT_VEHTYPE" speed="11.12" pos="50.70" lane="e_t_1" slope="0.00"/>
        <vehicle id="flow_ne.0" x="-1.60" y="140.71" angle="180.00" type="DEFAULT_VEHTYPE" speed="13.65" pos="59.29" lane="n_t_2" slope="0.00"/>
        <vehicle id="flow_ns.0" x="-4.80" y="137.43" angle="180.00" type="DEFAULT_VEHTYPE" speed="14.30" pos="62.57" lane="n_t_1" slope="0.00"/>
        <vehicle id="flow_nw.0" x="-8.00" y="144.96" angle="180.00" type="DEFAULT_VEHTYPE" speed="12.82" pos="55.04" lane="n_t_0" slope="0.00"/>
        <vehicle id="flow_se.0" x="8.00" y="-150.83" angle="0.00" type="DEFAULT_VEHTYPE" speed="10.74" pos="49.17" lane="s_t_0" slope="0.00"/>
        <vehicle id="flow_sn.0" x="4.80" y="-141.19" angle="0.00" type="DEFAULT_VEHTYPE" speed="14.26" pos="58.81" lane="s_t_1" slope="0.00"/>
        <vehicle id="flow_sw.0" x="1.60" y="-136.11" angle="0.00" type="DEFAULT_VEHTYPE" speed="14.87" pos="63.89" lane="s_t_2" slope="0.00"/>
        <vehicle id="flow_we.0" x="-138.15" y="-4.80" angle="90.00" type="DEFAULT_VEHTYPE" speed="14.11" pos="61.85" lane="w_t_1" slope="0.00"/>
        <vehicle id="flow_wn.0" x="-149.04" y="-1.60" angle="90.00" type="DEFAULT_VEHTYPE" speed="11.89" pos="50.96" lane="w_t_2" slope="0.00"/>
        <vehicle id="flow_ws.0" x="-140.09" y="-8.00" angle="90.00" type="DEFAULT_VEHTYPE" speed="13.05" pos="59.91" lane="w_t_0" slope="0.00"/>
    </timestep>
    <timestep time="5.00">
        <vehicle id="flow_en.0" x="125.88" y="8.00" angle="270.00" type="DEFAULT_VEHTYPE" speed="14.46" pos="74.12" lane="e_t_0" slope="0.00"/>
        <vehicle id="flow_es.0" x="133.52" y="1.60" angle="270.00" type="DEFAULT_VEHTYPE" speed="11.87" pos="66.48" lane="e_t_2" slope="0.00"/>
        <vehicle id="flow_ew.0" x="137.02" y="4.80" angle="270.00" type="DEFAULT_VEHTYPE" speed="12.28" pos="62.98" lane="e_t_1" slope="0.00"/>
        <vehicle id="flow_ne.0" x="-1.60" y="127.90" angle="180.00" type="DEFAULT_VEHTYPE" speed="12.80" pos="72.10" lane="n_t_2" slope="0.00"/>
        <vehicle id="flow_ns.0" x="-4.80" y="123.37" angle="180.00" type="DEFAULT_VEHTYPE" speed="14.06" pos="76.63" lane="n_t_1" slope="0.00"/>
        <vehicle id="flow_nw.0" x="-8.00" y="133.08" angle="180.00" type="DEFAULT_VEHTYPE" speed="11.87" pos="66.92" lane="n_t_0" slope="0.00"/>
        <vehicle id="flow_se.0" x="8.00" y="-140.20" angle="0.00" type="DEFAULT_VEHTYPE" speed="10.63" pos="59.80" lane="s_t_0" slope="0.00"/>
        <vehicle id="flow_sn.0" x="4.80" y="-127.42" angle="0.00" type="DEFAULT_VEHTYPE" speed="13.77" pos="72.58" lane="s_t_1" slope="0.00"/>
        <vehicle id="flow_sw.0" x="1.60" y="-121.21" angle="0.00" type="DEFAULT_VEHTYPE" speed="14.90" pos="78.79" lane="s_t_2" slope="0.00"/>
        <vehicle id="flow_we.0" x="-123.87" y="-4.80" angle="90.00" type="DEFAULT_VEHTYPE" speed="14.27" pos="76.13" lane="w_t_1" slope="0.00"/>
        <vehicle id="flow_wn.0" x="-138.19" y="-1.60" angle="90.00" type="DEFAULT_VEHTYPE" speed="10.85" pos="61.81" lane="w_t_2" slope="0.00"/>
        <vehicle id="flow_ws.0" x="-127.04" y="-8.00" angle="90.00" type="DEFAULT_VEHTYPE" speed="13.05" pos="72.96" lane="w_t_0" slope="0.00"/>
    </timestep>
    <timestep time="6.00">
        <vehicle id="flow_en.0" x="112.20" y="8.00" angle="270.00" type="DEFAULT_VEHTYPE" speed="13.68" pos="87.80" lane="e_t_0" slope="0.00"/>
        <vehicle id="flow_es.0" x="121.33" y="1.60" angle="270.00" type="DEFAULT_VEHTYPE" speed="12.19" pos="78.67" lane="e_t_2" slope="0.00"/>
        <vehicle id="flow_ew.0" x="124.79" y="4.80" angle="270.00" type="DEFAULT_VEHTYPE" speed="12.23" pos="75.21" lane="e_t_1" slope="0.00"/>
        <vehicle id="flow_ne.0" x="-1.60" y="114.14" angle="180.00" type="DEFAULT_VEHTYPE" speed="13.77" pos="85.86" lane="n_t_2" slope="0.00"/>
        <vehicle id="flow_ns.0" x="-4.80" y="108.94" angle="180.00" type="DEFAULT_VEHTYPE" speed="14.42" pos="91.06" lane="n_t_1" slope="0.00"/>
        <vehicle id="flow_nw.0" x="-8.00" y="121.25" angle="180.00" type="DEFAULT_VEHTYPE" speed="11.84" pos="78.75" lane="n_t_0" slope="0.00"/>
        <vehicle id="flow_se.0" x="8.00" y="-128.99" angle="0.00" type="DEFAULT_VEHTYPE" speed="11.21" pos="71.01" lane="s_t_0" slope="0.00"/>
        <vehicle id="flow_sn.0" x="4.80" y="-113.29" angle="0.00" type="DEFAULT_VEHTYPE" speed="14.13" pos="86.71" lane="s_t_1" slope="0.00"/>
        <vehicle id="flow_sw.0" x="1.60" y="-107.37" angle="0.00" type="DEFAULT_VEHTYPE" speed="13.83" pos="92.63" lane="s_t_2" slope="0.00"/>
        <vehicle id="flow_we.0" x="-109.58" y="-4.80" angle="90.00" type="DEFAULT_VEHTYPE" speed="14.29" pos="90.42" lane="w_t_1" slope="0.00"/>
        <vehicle id="flow_wn.0" x="-127.49" y="-1.60" angle="90.00" type="DEFAULT_VEHTYPE" speed="10.70" pos="72.51" lane="w_t_2" slope="0.00"/>
        <vehicle id="flow_ws.0" x="-113.34" y="-8.00" angle="90.00" type="DEFAULT_VEHTYPE" speed="13.70" pos="86.66" lane="w_t_0" slope="0.00"/>
    </timestep>
    <timestep time="7.00">
        <vehicle id="flow_en.0" x="98.50" y="8.00" angle="270.00" type="DEFAULT_VEHTYPE" speed="13.70" pos="101.50" lane="e_t_0" slope="0.00"/>
        <vehicle id="flow_es.0" x="109.47" y="1.60" angle="270.00" type="DEFAULT_VEHTYPE" speed="11.86" pos="90.53" lane="e_t_2" slope="0.00"/>
        <vehicle id="flow_ew.0" x="113.65" y="4.80" angle="270.00" type="DEFAULT_VEHTYPE" speed="11.15" pos="86.35" lane="e_t_1" slope="0.00"/>
        <vehicle id="flow_ne.0" x="-1.60" y="101.00" angle="180.00" type="DEFAULT_VEHTYPE" speed="13.14" pos="99.00" lane="n_t_2" slope="0.00"/>
        <vehicle id="flow_ns.0" x="-4.80" y="95.29" angle="180.00" type="DEFAULT_VEHTYPE" speed="13.65" pos="104.71" lane="n_t_1" slope="0.00"/>
        <vehicle id="flow_nw.0" x="-8.00" y="108.75" angle="180.00" type="DEFAULT_VEHTYPE" speed="12.50" pos="91.25" lane="n_t_0" slope="0.00"/>
        <vehicle id="flow_se.0" x="8.00" y="-118.56" angle="0.00" type="DEFAULT_VEHTYPE" speed="10.43" pos="81.44" lane="s_t_0" slope="0.00"/>
        <vehicle id="flow_sn.0" x="4.80" y="-99.09" angle="0.00" type="DEFAULT_VEHTYPE" speed="14.20" pos="100.91" lane="s_t_1" slope="0.00"/>
        <vehicle id="flow_sw.0" x="1.60" y="-92.59" angle="0.00" type="DEFAULT_VEHTYPE" speed="14.78" pos="107.41" lane="s_t_2" slope="0.00"/>
        <vehicle id="flow_we.0" x="-94.73" y="-4.80" angle="90.00" type="DEFAULT_VEHTYPE" speed="14.85" pos="105.27" lane="w_t_1" slope="0.00"/>
        <vehicle id="flow_wn.0" x="-116.78" y="-1.60" angle="90.00" type="DEFAULT_VEHTYPE" speed="10.70" pos="83.22" lane="w_t_2" slope="0.00"/>
        <vehicle id="flow_ws.0" x="-99.49" y="-8.00" angle="90.00" type="DEFAULT_VEHTYPE" speed="13.85" pos="100.51" lane="w_t_0" slope="0.00"/>
    </timestep>
    <timestep time="8.00">
        <vehicle id="flow_en.0" x="84.70" y="8.00" angle="270.00" type="DEFAULT_VEHTYPE" speed="13.80" pos="115.30" lane="e_t_0" slope="0.00"/>
        <vehicle id="flow_es.0" x="97.12" y="1.60" angle="270.00" type="DEFAULT_VEHTYPE" speed="12.35" pos="102.88" lane="e_t_2" slope="0.00"/>
        <vehicle id="flow_ew.0" x="102.28" y="4.80" angle="270.00" type="DEFAULT_VEHTYPE" speed="11.36" pos="97.72" lane="e_t_1" slope="0.00"/>
        <vehicle id="flow_ne.0" x="-1.60" y="87.56" angle="180.00" type="DEFAULT_VEHTYPE" speed="13.44" pos="112.44" lane="n_t_2" slope="0.00"/>
        <vehicle id="flow_ns.0" x="-4.80" y="81.41" angle="180.00" type="DEFAULT_VEHTYPE" speed="13.88" pos="118.59" lane="n_t_1" slope="0.00"/>
        <vehicle id="flow_nw.0" x="-8.00" y="96.76" angle="180.00" type="DEFAULT_VEHTYPE" speed="11.98" pos="103.24" lane="n_t_0" slope="0.00"/>
        <vehicle id="flow_se.0" x="8.00" y="-107.40" angle="0.00" type="DEFAULT_VEHTYPE" speed="11.16" pos="92.60" lane="s_t_0" slope="0.00"/>
        <vehicle id="flow_sn.0" x="4.80" y="-84.95" angle="0.00" type="DEFAULT_VEHTYPE" speed="14.14" pos="115.05" lane="s_t_1" slope="0.00"/>
        <vehicle id="flow_sw.0" x="1.60" y="-77.63" angle="0.00" type="DEFAULT_VEHTYPE" speed="14.96" pos="122.37" lane="s_t_2" slope="0.00"/>
        <vehicle id="flow_we.0" x="-79.93" y="-4.80" angle="90.00" type="DEFAULT_VEHTYPE" speed="14.80" pos="120.07" lane="w_t_1" slope="0.00"/>
        <vehicle id="flow_wn.0" x="-105.36" y="-1.60" angle="90.00" type="DEFAULT_VEHTYPE" speed="11.43" pos="94.64" lane="w_t_2" slope="0.00"/>
        <vehicle id="flow_ws.0" x="-85.73" y="-8.00" angle="90.00" type="DEFAULT_VEHTYPE" speed="13.76" pos="114.27" lane="w_t_0" slope="0.00"/>
    </timestep>
    <timestep time="9.00">
        <vehicle id="flow_en.0" x="70.32" y="8.00" angle="270.00" type="DEFAULT_VEHTYPE" speed="14.38" pos="129.68" lane="e_t_0" slope="0.00"/>
        <vehicle id="flow_es.0" x="84.54" y="1.60" angle="270.00" type="DEFAULT_VEHTYPE" speed="12.58" pos="115.46" lane="e_t_2" slope="0.00"/>
        <vehicle id="flow_ew.0" x="90.38" y="4.80" angle="270.00" type="DEFAULT_VEHTYPE" speed="11.90" pos="109.62" lane="e_t_1" slope="0.00"/>
        <vehicle id="flow_ne.0" x="-1.60" y="74.38" angle="180.00" type="DEFAULT_VEHTYPE" speed="13.18" pos="125.62" lane="n_t_2" slope="0.00"/>
        <vehicle id="flow_ns.0" x="-4.80" y="67.20" angle="180.00" type="DEFAULT_VEHTYPE" speed="14.21" pos="132.80" lane="n_t_1" slope="0.00"/>
        <vehicle id="flow_nw.0" x="-8.00" y="83.74" angle="180.00" type="DEFAULT_VEHTYPE" speed="13.03" pos="116.26" lane="n_t_0" slope="0.00"/>
        <vehicle id="flow_se.0" x="8.00" y="-96.97" angle="0.00" type="DEFAULT_VEHTYPE" speed="10.43" pos="103.03" lane="s_t_0" slope="0.00"/>
        <vehicle id="flow_sn.0" x="4.80" y="-71.74" angle="0.00" type="DEFAULT_VEHTYPE" speed="13.21" pos="128.26" lane="s_t_1" slope="0.00"/>
        <vehicle id="flow_sw.0" x="1.60" y="-63.14" angle="0.00" type="DEFAULT_VEHTYPE" speed="14.49" pos="136.86" lane="s_t_2" slope="0.00"/>
        <vehicle id="flow_we.0" x="-65.25" y="-4.80" angle="90.00" type="DEFAULT_VEHTYPE" speed="14.68" pos="134.75" lane="w_t_1" slope="0.00"/>
        <vehicle id="flow_wn.0" x="-93.90" y="-1.60" angle="90.00" type="DEFAULT_VEHTYPE" speed="11.46" pos="106.10" lane="w_t_2" slope="0.00"/>
        <vehicle id="flow_ws.0" x="-71.69" y="-8.00" angle="90.00" type="DEFAULT_VEHTYPE" speed="14.04" pos="128.31" lane="w_t_0" slope="0.00"/>
    </timestep>
    <timestep time="10.00">
        <vehicle id="flow_en.0" x="56.44" y="8.00" angle="270.00" type="DEFAULT_VEHTYPE" speed="13.88" pos="143.56" lane="e_t_0" slope="0.00"/>
        <vehicle id="flow_es.0" x="72.59" y="1.60" angle="270.00" type="DEFAULT_VEHTYPE" speed="11.96" pos="127.41" lane="e_t_2" slope="0.00"/>
        <vehicle id="flow_ew.0" x="78.93" y="4.80" angle="270.00" type="DEFAULT_VEHTYPE" speed="11.45" pos="121.07" lane="e_t_1" slope="0.00"/>
        <vehicle id="flow_ne.0" x="-1.60" y="60.40" angle="180.00" type="DEFAULT_VEHTYPE" speed="13.98" pos="139.60" lane="n_t_2" slope="0.00"/>
        <vehicle id="flow_ns.0" x="-4.80" y="52.48" angle="180.00" type="DEFAULT_VEHTYPE" speed="14.71" pos="147.52" lane="n_t_1" slope="0.00"/>
        <vehicle id="flow_nw.0" x="-8.00" y="71.26" angle="180.00" type="DEFAULT_VEHTYPE" speed="12.48" pos="128.74" lane="n_t_0" slope="0.00"/>
        <vehicle id="flow_se.0" x="8.00" y="-85.84" angle="0.00" type="DEFAULT_VEHTYPE" speed="11.14" pos="114.16" lane="s_t_0" slope="0.00"/>
        <vehicle id="flow_sn.0" x="4.80" y="-57.97" angle="0.00" type="DEFAULT_VEHTYPE" speed="13.77" pos="142.03" lane="s_t_1" slope="0.00"/>
        <vehicle id="flow_sw.0" x="1.60" y="-48.39" angle="0.00" type="DEFAULT_VEHTYPE" speed="14.75" pos="151.61" lane="s_t_2" slope="0.00"/>
        <vehicle id="flow_we.0" x="-50.77" y="-4.80" angle="90.00" type="DEFAULT_VEHTYPE" speed="14.48" pos="149.23" lane="w_t_1" slope="0.00"/>
        <vehicle id="flow_wn.0" x="-82.96" y="-1.60" angle="90.00" type="DEFAULT_VEHTYPE" speed="10.94" pos="117.04" lane="w_t_2" slope="0.00"/>
        <vehicle id="flow_ws.0" x="-58.45" y="-8.00" angle="90.00" type="DEFAULT_VEHTYPE" speed="13.24" pos="141.55" lane="w_t_0" slope="0.00"/>
    </timestep>
    <timestep time="11.00">
        <vehicle id="flow_en.0" x="42.42" y="8.00" angle="270.00" type="DEFAULT_VEHTYPE" speed="14.01" pos="157.58" lane="e_t_0" slope="0.00"/>
        <vehicle id="flow_es.0" x="60.69" y="1.60" angle="270.00" type="DEFAULT_VEHTYPE" speed="11.90" pos="139.31" lane="e_t_2" slope="0.00"/>
        <vehicle id="flow_ew.0" x="67.76" y="4.80" angle="270.00" type="DEFAULT_VEHTYPE" speed="11.17" pos="132.24" lane="e_t_1" slope="0.00"/>
        <vehicle id="flow_ne.0" x="-1.60" y="46.76" angle="180.00" type="DEFAULT_VEHTYPE" speed="13.64" pos="153.24" lane="n_t_2" slope="0.00"/>
        <vehicle id="flow_ns.0" x="-4.80" y="39.00" angle="180.00" type="DEFAULT_VEHTYPE" speed="13.49" pos="161.00" lane="n_t_1" slope="0.00"/>
        <vehicle id="flow_nw.0" x="-8.00" y="59.42" angle="180.00" type="DEFAULT_VEHTYPE" speed="11.84" pos="140.58" lane="n_t_0" slope="0.00"/>
        <vehicle id="flow_se.0" x="8.00" y="-74.39" angle="0.00" type="DEFAULT_VEHTYPE" speed="11.45" pos="125.61" lane="s_t_0" slope="0.00"/>
        <vehicle id="flow_sn.0" x="4.80" y="-44.09" angle="0.00" type="DEFAULT_VEHTYPE" speed="13.88" pos="155.91" lane="s_t_1" slope="0.00"/>
        <vehicle id="flow_sw.0" x="1.60" y="-33.48" angle="0.00" type="DEFAULT_VEHTYPE" speed="14.91" pos="166.52" lane="s_t_2" slope="0.00"/>
        <vehicle id="flow_we.0" x="-35.91" y="-4.80" angle="90.00" type="DEFAULT_VEHTYPE" speed="14.86" pos="164.09" lane="w_t_1" slope="0.00"/>
        <vehicle id="flow_wn.0" x="-72.34" y="-1.60" angle="90.00" type="DEFAULT_VEHTYPE" speed="10.61" pos="127.66" lane="w_t_2" slope="0.00"/>
        <vehicle id="flow_ws.0" x="-44.67" y="-8.00" angle="90.00" type="DEFAULT_VEHTYPE" speed="13.78" pos="155.33" lane="w_t_0" slope="0.00"/>
    </timestep>
    <timestep time="12.00">
        <vehicle id="flow_en.0" x="28.52" y="8.00" angle="270.00" type="DEFAULT_VEHTYPE" speed="13.90" pos="171.48" lane="e_t_0" slope="0.00"/>
        <vehicle id="flow_es.0" x="47.97" y="1.60" angle="270.00" type="DEFAULT_VEHTYPE" speed="12.72" pos="152.03" lane="e_t_2" slope="0.00"/>
        <vehicle id="flow_ew.0" x="55.76" y="4.80" angle="270.00" type="DEFAULT_VEHTYPE" speed="12.00" pos="144.24" lane="e_t_1" slope="0.00"/>
        <vehicle id="flow_ne.0" x="-1.60" y="33.43" angle="180.00" type="DEFAULT_VEHTYPE" speed="13.34" pos="166.57" lane="n_t_2" slope="0.00"/>
        <vehicle id="flow_ns.0" x="-4.80" y="27.26" angle="180.00" type="DEFAULT_VEHTYPE" speed="11.74" pos="172.74" lane="n_t_1" slope="0.00"/>
        <vehicle id="flow_nw.0" x="-8.00" y="47.24" angle="180.00" type="DEFAULT_VEHTYPE" speed="12.18" pos="152.76" lane="n_t_0" slope="0.00"/>
        <vehicle id="flow_se.0" x="8.00" y="-63.65" angle="0.00" type="DEFAULT_VEHTYPE" speed="10.74" pos="136.35" lane="s_t_0" slope="0.00"/>
        <vehicle id="flow_sn.0" x="4.80" y="-30.00" angle="0.00" type="DEFAULT_VEHTYPE" speed="14.08" pos="170.00" lane="s_t_1" slope="0.00"/>
        <vehicle id="flow_sw.0" x="1.60" y="-23.00" angle="0.00" type="DEFAULT_VEHTYPE" speed="10.49" pos="177.00" lane="s_t_2" slope="0.00"/>
        <vehicle id="flow_we.0" x="-20.91" y="-4.80" angle="90.00" type="DEFAULT_VEHTYPE" speed="15.00" pos="179.09" lane="w_t_1" slope="0.00"/>
        <vehicle id="flow_wn.0" x="-60.67" y="-1.60" angle="90.00" type="DEFAULT_VEHTYPE" speed="11.67" pos="139.33" lane="w_t_2" slope="0.00"/>
        <vehicle id="flow_ws.0" x="-31.34" y="-8.00" angle="90.00" type="DEFAULT_VEHTYPE" speed="13.33" pos="168.66" lane="w_t_0" slope="0.00"/>
    </timestep>
    <timestep time="13.00">
        <vehicle id="flow_en.0" x="18.40" y="8.00" angle="270.00" type="DEFAULT_VEHTYPE" speed="10.12" pos="181.60" lane="e_t_0" slope="0.00"/>
        <vehicle id="flow_es.0" x="35.51" y="1.60" angle="270.00" type="DEFAULT_VEHTYPE" speed="12.46" pos="164.49" lane="e_t_2" slope="0.00"/>
        <vehicle id="flow_ew.0" x="43.58" y="4.80" angle="270.00" type="DEFAULT_VEHTYPE" speed="12.18" pos="156.42" lane="e_t_1" slope="0.00"/>
        <vehicle id="flow_ne.0" x="-1.60" y="23.54" angle="180.00" type="DEFAULT_VEHTYPE" speed="9.89" pos="176.46" lane="n_t_2" slope="0.00"/>
        <vehicle id="flow_ns.0" x="-4.80" y="19.70" angle="180.00" type="DEFAULT_VEHTYPE" speed="7.55" pos="180.30" lane="n_t_1" slope="0.00"/>
        <vehicle id="flow_nw.0" x="-8.00" y="34.22" angle="180.00" type="DEFAULT_VEHTYPE" speed="13.02" pos="165.78" lane="n_t_0" slope="0.00"/>
        <vehicle id="flow_se.0" x="8.00" y="-53.13" angle="0.00" type="DEFAULT_VEHTYPE" speed="10.51" pos="146.87" lane="s_t_0" slope="0.00"/>
        <vehicle id="flow_sn.0" x="4.80" y="-20.42" angle="0.00" type="DEFAULT_VEHTYPE" speed="9.58" pos="179.58" lane="s_t_1" slope="0.00"/>
        <vehicle id="flow_sw.0" x="1.60" y="-17.01" angle="0.00" type="DEFAULT_VEHTYPE" speed="5.99" pos="182.99" lane="s_t_2" slope="0.00"/>
        <vehicle id="flow_we.0" x="-5.90" y="-4.80" angle="90.00" type="DEFAULT_VEHTYPE" speed="15.02" pos="7.70" lane=":t_10_0" slope="0.00"/>
        <vehicle id="flow_wn.0" x="-49.40" y="-1.60" angle="90.00" type="DEFAULT_VEHTYPE" speed="11.28" pos="150.60" lane="w_t_2" slope="0.00"/>
        <vehicle id="flow_ws.0" x="-20.85" y="-8.00" angle="90.00" type="DEFAULT_VEHTYPE" speed="10.49" pos="179.15" lane="w_t_0" slope="0.00"/>
    </timestep>
    <timestep time="14.00">
        <vehicle id="flow_en.0" x="12.79" y="8.12" angle="271.32" type="DEFAULT_VEHTYPE" speed="5.62" pos="0.81" lane=":t_3_0" slope="0.00"/>
        <vehicle id="flow_es.0" x="24.32" y="1.60" angle="270.00" type="DEFAULT_VEHTYPE" speed="11.19" pos="175.68" lane="e_t_2" slope="0.00"/>
        <vehicle id="flow_ew.0" x="31.43" y="4.80" angle="270.00" type="DEFAULT_VEHTYPE" speed="12.15" pos="168.57" lane="e_t_1" slope="0.00"/>
        <vehicle id="flow_ne.0" x="-1.60" y="17.08" angle="180.00" type="DEFAULT_VEHTYPE" speed="6.46" pos="182.92" lane="n_t_2" slope="0.00"/>
        <vehicle id="flow_ns.0" x="-4.80" y="16.10" angle="180.00" type="DEFAULT_VEHTYPE" speed="3.60" pos="183.90" lane="n_t_1" slope="0.00"/>
        <vehicle id="flow_nw.0" x="-8.00" y="22.26" angle="180.00" type="DEFAULT_VEHTYPE" speed="11.97" pos="177.74" lane="n_t_0" slope="0.00"/>
        <vehicle id="flow_se.0" x="8.00" y="-42.73" angle="0.00" type="DEFAULT_VEHTYPE" speed="10.40" pos="157.27" lane="s_t_0" slope="0.00"/>
        <vehicle id="flow_sn.0" x="4.80" y="-15.34" angle="0.00" type="DEFAULT_VEHTYPE" speed="5.08" pos="184.66" lane="s_t_1" slope="0.00"/>
        <vehicle id="flow_sw.0" x="1.60" y="-14.71" angle="0.00" type="DEFAULT_VEHTYPE" speed="2.30" pos="185.29" lane="s_t_2" slope="0.00"/>
        <vehicle id="flow_we.0" x="8.64" y="-4.80" angle="90.00" type="DEFAULT_VEHTYPE" speed="14.54" pos="22.24" lane=":t_10_0" slope="0.00"/>
        <vehicle id="flow_wn.0" x="-37.72" y="-1.60" angle="90.00" type="DEFAULT_VEHTYPE" speed="11.68" pos="162.28" lane="w_t_2" slope="0.00"/>
        <vehicle id="flow_ws.0" x="-14.79" y="-8.00" angle="90.00" type="DEFAULT_VEHTYPE" speed="6.06" pos="185.21" lane="w_t_0" slope="0.00"/>
    </timestep>
    <timestep time="15.00">
        <vehicle id="flow_en.0" x="8.24" y="11.95" angle="320.08" type="DEFAULT_VEHTYPE" speed="6.55" pos="7.36" lane=":t_3_0" slope="0.00"/>
        <vehicle id="flow_es.0" x="17.63" y="1.60" angle="270.00" type="DEFAULT_VEHTYPE" speed="6.69" pos="182.37" lane="e_t_2" slope="0.00"/>
        <vehicle id="flow_ew.0" x="19.35" y="4.80" angle="270.00" type="DEFAULT_VEHTYPE" speed="12.08" pos="180.65" lane="e_t_1" slope="0.00"/>
        <vehicle id="flow_ne.0" x="-1.60" y="14.99" angle="180.00" type="DEFAULT_VEHTYPE" speed="2.08" pos="185.01" lane="n_t_2" slope="0.00"/>
        <vehicle id="flow_ns.0" x="-4.80" y="15.00" angle="180.00" type="DEFAULT_VEHTYPE" speed="1.10" pos="185.00" lane="n_t_1" slope="0.00"/>
        <vehicle id="flow_nw.0" x="-8.00" y="13.71" angle="180.00" type="DEFAULT_VEHTYPE" speed="8.55" pos="186.29" lane="n_t_0" slope="0.00"/>
        <vehicle id="flow_se.0" x="8.00" y="-31.27" angle="0.00" type="DEFAULT_VEHTYPE" speed="11.46" pos="168.73" lane="s_t_0" slope="0.00"/>
        <vehicle id="flow_sn.0" x="4.80" y="-14.75" angle="0.00" type="DEFAULT_VEHTYPE" speed="0.59" pos="185.25" lane="s_t_1" slope="0.00"/>
        <vehicle id="flow_sw.0" x="1.60" y="-14.61" angle="0.00" type="DEFAULT_VEHTYPE" speed="0.10" pos="185.39" lane="s_t_2" slope="0.00"/>
        <vehicle id="flow_we.0" x="22.68" y="-4.80" angle="90.00" type="DEFAULT_VEHTYPE" speed="14.04" pos="9.08" lane="t_e_1" slope="0.00"/>
        <vehicle id="flow_wn.0" x="-26.66" y="-1.60" angle="90.00" type="DEFAULT_VEHTYPE" speed="11.06" pos="173.34" lane="w_t_2" slope="0.00"/>
        <vehicle id="flow_ws.0" x="-9.44" y="-9.38" angle="106.33" type="DEFAULT_VEHTYPE" speed="5.66" pos="4.47" lane=":t_9_0" slope="0.00"/>
    </timestep>
    <timestep time="16.00">
        <vehicle id="flow_en.0" x="8.00" y="17.58" angle="358.35" type="DEFAULT_VEHTYPE" speed="5.65" pos="3.98" lane="t_n_0" slope="0.00"/>
        <vehicle id="flow_es.0" x="15.42" y="1.60" angle="270.00" type="DEFAULT_VEHTYPE" speed="2.21" pos="184.58" lane="e_t_2" slope="0.00"/>
        <vehicle id="flow_ew.0" x="7.24" y="4.80" angle="270.00" type="DEFAULT_VEHTYPE" speed="12.11" pos="6.36" lane=":t_4_0" slope="0.00"/>