<?xml version="1.0" encoding="UTF-8"?>

<!-- generated on 2025-08-18 16:45:51 by Eclipse SUMO GUI Version 1.16.0
<configuration xmlns:xsi="http://www.w3.org/2001/XMLSchema-instance" xsi:noNamespaceSchemaLocation="http://sumo.dlr.de/xsd/sumoConfiguration.xsd">

    <input>
        <net-file value="E:\txw\sumo-rl\nets\syc\1x1\Equal_entries_140\syc_4phases.net.xml"/>
        <route-files value="E:\txw\sumo-rl\nets\syc\1x1\Equal_entries_140\equal_entries_140.rou.xml"/>
        <additional-files value="E:\txw\sumo-rl\nets\syc\1x1\Equal_entries_140\1x1_outputs.add.xml"/>
    </input>

    <output>
        <fcd-output value="E:\txw\sumo-rl\nets\syc\1x1\Equal_entries_140\output/fcd_output.xml"/>
        <tripinfo-output value="E:\txw\sumo-rl\nets\syc\1x1\Equal_entries_140\output/tripinfo.out.xml"/>
    </output>

    <time>
        <begin value="0"/>
        <end value="1000"/>
    </time>

</configuration>
-->

<tripinfos xmlns:xsi="http://www.w3.org/2001/XMLSchema-instance" xsi:noNamespaceSchemaLocation="http://sumo.dlr.de/xsd/tripinfo_file.xsd">
    <tripinfo id="flow_we.0" depart="0.00" departLane="w_t_1" departPos="5.10" departSpeed="15.15" departDelay="0.00" arrival="28.00" arrivalLane="t_e_1" arrivalPos="186.40" arrivalSpeed="14.00" duration="28.00" routeLength="394.90" waitingTime="0.00" waitingCount="0" stopTime="0.00" timeLoss="1.10" rerouteNo="0" devices="tripinfo_flow_we.0 fcd_flow_we.0" vType="DEFAULT_VEHTYPE" speedFactor="1.09" vaporized=""/>
    <tripinfo id="flow_en.0" depart="0.00" departLane="e_t_0" departPos="5.10" departSpeed="14.53" departDelay="0.00" arrival="30.00" arrivalLane="t_n_0" arrivalPos="186.40" arrivalSpeed="13.67" duration="30.00" routeLength="376.73" waitingTime="0.00" waitingCount="0" stopTime="0.00" timeLoss="3.05" rerouteNo="0" devices="tripinfo_flow_en.0 fcd_flow_en.0" vType="DEFAULT_VEHTYPE" speedFactor="1.05" vaporized=""/>
    <tripinfo id="flow_ws.0" depart="0.00" departLane="w_t_0" departPos="5.10" departSpeed="14.26" departDelay="0.00" arrival="31.00" arrivalLane="t_s_0" arrivalPos="186.40" arrivalSpeed="13.91" duration="31.00" routeLength="376.73" waitingTime="0.00" waitingCount="0" stopTime="0.00" timeLoss="3.39" rerouteNo="0" devices="tripinfo_flow_ws.0 fcd_flow_ws.0" vType="DEFAULT_VEHTYPE" speedFactor="1.03" vaporized=""/>
    <tripinfo id="flow_nw.0" depart="0.00" departLane="n_t_0" departPos="5.10" departSpeed="13.03" departDelay="0.00" arrival="33.00" arrivalLane="t_w_0" arrivalPos="186.40" arrivalSpeed="12.99" duration="33.00" routeLength="376.73" waitingTime="0.00" waitingCount="0" stopTime="0.00" timeLoss="3.56" rerouteNo="0" devices="tripinfo_flow_nw.0 fcd_flow_nw.0" vType="DEFAULT_VEHTYPE" speedFactor="0.94" vaporized=""/>
    <tripinfo id="flow_ew.0" depart="0.00" departLane="e_t_1" departPos="5.10" departSpeed="12.31" departDelay="0.00" arrival="34.00" arrivalLane="t_w_1" arrivalPos="186.40" arrivalSpeed="11.49" duration="34.00" routeLength="394.90" waitingTime="0.00" waitingCount="0" stopTime="0.00" timeLoss="1.74" rerouteNo="0" devices="tripinfo_flow_ew.0 fcd_flow_ew.0" vType="DEFAULT_VEHTYPE" speedFactor="0.89" vaporized=""/>
    <tripinfo id="flow_se.0" depart="0.00" departLane="s_t_0" departPos="5.10" departSpeed="11.54" departDelay="0.00" arrival="37.00" arrivalLane="t_e_0" arrivalPos="186.40" arrivalSpeed="11.12" duration="37.00" routeLength="376.73" waitingTime="0.00" waitingCount="0" stopTime="0.00" timeLoss="3.72" rerouteNo="0" devices="tripinfo_flow_se.0 fcd_flow_se.0" vType="DEFAULT_VEHTYPE" speedFactor="0.83" vaporized=""/>
    <tripinfo id="flow_nw.1" depart="26.00" departLane="n_t_0" departPos="5.10" departSpeed="15.60" departDelay="0.29" arrival="55.00" arrivalLane="t_w_0" arrivalPos="186.40" arrivalSpeed="15.52" duration="29.00" routeLength="376.73" waitingTime="0.00" waitingCount="0" stopTime="0.00" timeLoss="3.96" rerouteNo="0" devices="tripinfo_flow_nw.1 fcd_flow_nw.1" vType="DEFAULT_VEHTYPE" speedFactor="1.12" vaporized=""/>
    <tripinfo id="flow_es.0" depart="0.00" departLane="e_t_2" departPos="5.10" departSpeed="13.03" departDelay="0.00" arrival="57.00" arrivalLane="t_s_2" arrivalPos="186.40" arrivalSpeed="12.29" duration="57.00" routeLength="392.21" waitingTime="19.00" waitingCount="1" stopTime="0.00" timeLoss="26.02" rerouteNo="0" devices="tripinfo_flow_es.0 fcd_flow_es.0" vType="DEFAULT_VEHTYPE" speedFactor="0.94" vaporized=""/>
    <tripinfo id="flow_wn.0" depart="0.00" departLane="w_t_2" departPos="5.10" departSpeed="11.90" departDelay="0.00" arrival="59.00" arrivalLane="t_n_2" arrivalPos="186.40" arrivalSpeed="10.80" duration="59.00" routeLength="392.21" waitingTime="18.00" waitingCount="1" stopTime="0.00" timeLoss="25.06" rerouteNo="0" devices="tripinfo_flow_wn.0 fcd_flow_wn.0" vType="DEFAULT_VEHTYPE" speedFactor="0.86" vaporized=""/>
    <tripinfo id="flow_se.1" depart="26.00" departLane="s_t_0" departPos="5.10" departSpeed="13.08" departDelay="0.29" arrival="59.00" arrivalLane="t_e_0" arrivalPos="186.40" arrivalSpeed="12.03" duration="33.00" routeLength="376.73" waitingTime="0.00" waitingCount="0" stopTime="0.00" timeLoss="3.54" rerouteNo="0" devices="tripinfo_flow_se.1 fcd_flow_se.1" vType="DEFAULT_VEHTYPE" speedFactor="0.94" vaporized=""/>
    <tripinfo id="flow_en.1" depart="26.00" departLane="e_t_0" departPos="5.10" departSpeed="13.00" departDelay="0.29" arrival="59.00" arrivalLane="t_n_0" arrivalPos="186.40" arrivalSpeed="12.95" duration="33.00" routeLength="376.73" waitingTime="0.00" waitingCount="0" stopTime="0.00" timeLoss="3.08" rerouteNo="0" devices="tripinfo_flow_en.1 fcd_flow_en.1" vType="DEFAULT_VEHTYPE" speedFactor="0.94" vaporized=""/>
    <tripinfo id="flow_es.1" depart="26.00" departLane="e_t_2" departPos="5.10" departSpeed="14.14" departDelay="0.29" arrival="59.00" arrivalLane="t_s_2" arrivalPos="186.40" arrivalSpeed="13.54" duration="33.00" routeLength="392.21" waitingTime="0.00" waitingCount="0" stopTime="0.00" timeLoss="4.20" rerouteNo="0" devices="tripinfo_flow_es.1 fcd_flow_es.1" vType="DEFAULT_VEHTYPE" speedFactor="1.02" vaporized=""/>
    <tripinfo id="flow_wn.1" depart="26.00" departLane="w_t_2" departPos="5.10" departSpeed="14.03" departDelay="0.29" arrival="61.00" arrivalLane="t_n_2" arrivalPos="186.40" arrivalSpeed="12.91" duration="35.00" routeLength="392.21" waitingTime="0.00" waitingCount="0" stopTime="0.00" timeLoss="5.55" rerouteNo="0" devices="tripinfo_flow_wn.1 fcd_flow_wn.1" vType="DEFAULT_VEHTYPE" speedFactor="1.01" vaporized=""/>
    <tripinfo id="flow_ws.1" depart="26.00" departLane="w_t_0" departPos="5.10" departSpeed="12.36" departDelay="0.29" arrival="61.00" arrivalLane="t_s_0" arrivalPos="186.40" arrivalSpeed="11.78" duration="35.00" routeLength="376.73" waitingTime="0.00" waitingCount="0" stopTime="0.00" timeLoss="3.78" rerouteNo="0" devices="tripinfo_flow_ws.1 fcd_flow_ws.1" vType="DEFAULT_VEHTYPE" speedFactor="0.89" vaporized=""/>
    <tripinfo id="flow_en.2" depart="52.00" departLane="e_t_0" departPos="5.10" departSpeed="16.37" departDelay="0.57" arrival="79.00" arrivalLane="t_n_0" arrivalPos="186.40" arrivalSpeed="16.24" duration="27.00" routeLength="376.73" waitingTime="0.00" waitingCount="0" stopTime="0.00" timeLoss="2.85" rerouteNo="0" devices="tripinfo_flow_en.2 fcd_flow_en.2" vType="DEFAULT_VEHTYPE" speedFactor="1.18" vaporized=""/>
    <tripinfo id="flow_wn.2" depart="52.00" departLane="w_t_2" departPos="5.10" departSpeed="16.28" departDelay="0.57" arrival="81.00" arrivalLane="t_n_2" arrivalPos="186.40" arrivalSpeed="16.11" duration="29.00" routeLength="392.21" waitingTime="0.00" waitingCount="0" stopTime="0.00" timeLoss="3.75" rerouteNo="0" devices="tripinfo_flow_wn.2 fcd_flow_wn.2" vType="DEFAULT_VEHTYPE" speedFactor="1.17" vaporized=""/>
    <tripinfo id="flow_es.2" depart="52.00" departLane="e_t_2" departPos="5.10" departSpeed="13.96" departDelay="0.57" arrival="83.00" arrivalLane="t_s_2" arrivalPos="186.40" arrivalSpeed="13.95" duration="31.00" routeLength="392.21" waitingTime="0.00" waitingCount="0" stopTime="0.00" timeLoss="2.31" rerouteNo="0" devices="tripinfo_flow_es.2 fcd_flow_es.2" vType="DEFAULT_VEHTYPE" speedFactor="1.01" vaporized=""/>
    <tripinfo id="flow_ws.2" depart="52.00" departLane="w_t_0" departPos="5.10" departSpeed="14.16" departDelay="0.57" arrival="83.00" arrivalLane="t_s_0" arrivalPos="186.40" arrivalSpeed="12.95" duration="31.00" routeLength="376.73" waitingTime="0.00" waitingCount="0" stopTime="0.00" timeLoss="3.94" rerouteNo="0" devices="tripinfo_flow_ws.2 fcd_flow_ws.2" vType="DEFAULT_VEHTYPE" speedFactor="1.02" vaporized=""/>
    <tripinfo id="flow_se.2" depart="52.00" departLane="s_t_0" departPos="5.10" departSpeed="12.94" departDelay="0.57" arrival="85.00" arrivalLane="t_e_0" arrivalPos="186.40" arrivalSpeed="12.04" duration="33.00" routeLength="376.73" waitingTime="0.00" waitingCount="0" stopTime="0.00" timeLoss="3.20" rerouteNo="0" devices="tripinfo_flow_se.2 fcd_flow_se.2" vType="DEFAULT_VEHTYPE" speedFactor="0.93" vaporized=""/>
    <tripinfo id="flow_nw.2" depart="52.00" departLane="n_t_0" departPos="5.10" departSpeed="12.12" departDelay="0.57" arrival="87.00" arrivalLane="t_w_0" arrivalPos="186.40" arrivalSpeed="11.11" duration="35.00" routeLength="376.73" waitingTime="0.00" waitingCount="0" stopTime="0.00" timeLoss="3.01" rerouteNo="0" devices="tripinfo_flow_nw.2 fcd_flow_nw.2" vType="DEFAULT_VEHTYPE" speedFactor="0.87" vaporized=""/>
    <tripinfo id="flow_ns.0" depart="0.00" departLane="n_t_1" departPos="5.10" departSpeed="14.72" departDelay="0.00" arrival="94.00" arrivalLane="t_s_1" arrivalPos="186.40" arrivalSpeed="13.77" duration="94.00" routeLength="394.90" waitingTime="59.00" waitingCount="1" stopTime="0.00" timeLoss="66.33" rerouteNo="0" devices="tripinfo_flow_ns.0 fcd_flow_ns.0" vType="DEFAULT_VEHTYPE" speedFactor="1.06" vaporized=""/>
    <tripinfo id="flow_sn.0" depart="0.00" departLane="s_t_1" departPos="5.10" departSpeed="14.31" departDelay="0.00" arrival="94.00" arrivalLane="t_n_1" arrivalPos="186.40" arrivalSpeed="13.42" duration="94.00" routeLength="394.90" waitingTime="60.00" waitingCount="1" stopTime="0.00" timeLoss="65.97" rerouteNo="0" devices="tripinfo_flow_sn.0 fcd_flow_sn.0" vType="DEFAULT_VEHTYPE" speedFactor="1.03" vaporized=""/>
    <tripinfo id="flow_ns.1" depart="26.00" departLane="n_t_1" departPos="5.10" departSpeed="14.54" departDelay="0.29" arrival="96.00" arrivalLane="t_s_1" arrivalPos="186.40" arrivalSpeed="14.37" duration="70.00" routeLength="394.90" waitingTime="36.00" waitingCount="1" stopTime="0.00" timeLoss="42.00" rerouteNo="0" devices="tripinfo_flow_ns.1 fcd_flow_ns.1" vType="DEFAULT_VEHTYPE" speedFactor="1.05" vaporized=""/>
    <tripinfo id="flow_sn.1" depart="26.00" departLane="s_t_1" departPos="5.10" departSpeed="12.20" departDelay="0.29" arrival="99.00" arrivalLane="t_n_1" arrivalPos="186.40" arrivalSpeed="11.57" duration="73.00" routeLength="394.90" waitingTime="34.00" waitingCount="1" stopTime="0.00" timeLoss="40.00" rerouteNo="0" devices="tripinfo_flow_sn.1 fcd_flow_sn.1" vType="DEFAULT_VEHTYPE" speedFactor="0.88" vaporized=""/>
    <tripinfo id="flow_sn.2" depart="52.00" departLane="s_t_1" departPos="5.10" departSpeed="15.72" departDelay="0.57" arrival="100.00" arrivalLane="t_n_1" arrivalPos="186.40" arrivalSpeed="13.99" duration="48.00" routeLength="394.90" waitingTime="12.00" waitingCount="1" stopTime="0.00" timeLoss="22.80" rerouteNo="0" devices="tripinfo_flow_sn.2 fcd_flow_sn.2" vType="DEFAULT_VEHTYPE" speedFactor="1.13" vaporized=""/>
    <tripinfo id="flow_ns.2" depart="52.00" departLane="n_t_1" departPos="5.10" departSpeed="11.47" departDelay="0.57" arrival="101.00" arrivalLane="t_s_1" arrivalPos="186.40" arrivalSpeed="11.44" duration="49.00" routeLength="394.90" waitingTime="7.00" waitingCount="1" stopTime="0.00" timeLoss="14.42" rerouteNo="0" devices="tripinfo_flow_ns.2 fcd_flow_ns.2" vType="DEFAULT_VEHTYPE" speedFactor="0.83" vaporized=""/>
    <tripinfo id="flow_nw.3" depart="78.00" departLane="n_t_0" departPos="5.10" departSpeed="16.39" departDelay="0.86" arrival="105.00" arrivalLane="t_w_0" arrivalPos="186.40" arrivalSpeed="16.05" duration="27.00" routeLength="376.73" waitingTime="0.00" waitingCount="0" stopTime="0.00" timeLoss="2.72" rerouteNo="0" devices="tripinfo_flow_nw.3 fcd_flow_nw.3" vType="DEFAULT_VEHTYPE" speedFactor="1.18" vaporized=""/>
    <tripinfo id="flow_sn.3" depart="78.00" departLane="s_t_1" departPos="5.10" departSpeed="14.31" departDelay="0.86" arrival="107.00" arrivalLane="t_n_1" arrivalPos="186.40" arrivalSpeed="14.03" duration="29.00" routeLength="394.90" waitingTime="0.00" waitingCount="0" stopTime="0.00" timeLoss="1.14" rerouteNo="0" devices="tripinfo_flow_sn.3 fcd_flow_sn.3" vType="DEFAULT_VEHTYPE" speedFactor="1.03" vaporized=""/>
    <tripinfo id="flow_en.3" depart="78.00" departLane="e_t_0" departPos="5.10" departSpeed="15.17" departDelay="0.86" arrival="107.00" arrivalLane="t_n_0" arrivalPos="186.40" arrivalSpeed="15.07" duration="29.00" routeLength="376.73" waitingTime="0.00" waitingCount="0" stopTime="0.00" timeLoss="3.10" rerouteNo="0" devices="tripinfo_flow_en.3 fcd_flow_en.3" vType="DEFAULT_VEHTYPE" speedFactor="1.09" vaporized=""/>
    <tripinfo id="flow_ns.3" depart="78.00" departLane="n_t_1" departPos="5.10" departSpeed="13.52" departDelay="0.86" arrival="109.00" arrivalLane="t_s_1" arrivalPos="186.40" arrivalSpeed="13.01" duration="31.00" routeLength="394.90" waitingTime="0.00" waitingCount="0" stopTime="0.00" timeLoss="1.46" rerouteNo="0" devices="tripinfo_flow_ns.3 fcd_flow_ns.3" vType="DEFAULT_VEHTYPE" speedFactor="0.97" vaporized=""/>
    <tripinfo id="flow_se.3" depart="78.00" departLane="s_t_0" departPos="5.10" departSpeed="13.29" departDelay="0.86" arrival="111.00" arrivalLane="t_e_0" arrivalPos="186.40" arrivalSpeed="12.39" duration="33.00" routeLength="376.73" waitingTime="0.00" waitingCount="0" stopTime="0.00" timeLoss="3.24" rerouteNo="0" devices="tripinfo_flow_se.3 fcd_flow_se.3" vType="DEFAULT_VEHTYPE" speedFactor="0.96" vaporized=""/>
    <tripinfo id="flow_ws.3" depart="78.00" departLane="w_t_0" departPos="5.10" departSpeed="12.51" departDelay="0.86" arrival="113.00" arrivalLane="t_s_0" arrivalPos="186.40" arrivalSpeed="12.01" duration="35.00" routeLength="376.73" waitingTime="0.00" waitingCount="0" stopTime="0.00" timeLoss="3.93" rerouteNo="0" devices="tripinfo_flow_ws.3 fcd_flow_ws.3" vType="DEFAULT_VEHTYPE" speedFactor="0.90" vaporized=""/>
    <tripinfo id="flow_sw.0" depart="0.00" departLane="s_t_2" departPos="5.10" departSpeed="15.04" departDelay="0.00" arrival="131.00" arrivalLane="t_w_2" arrivalPos="186.40" arrivalSpeed="14.03" duration="131.00" routeLength="392.21" waitingTime="99.00" waitingCount="1" stopTime="0.00" timeLoss="103.89" rerouteNo="0" devices="tripinfo_flow_sw.0 fcd_flow_sw.0" vType="DEFAULT_VEHTYPE" speedFactor="1.08" vaporized=""/>
    <tripinfo id="flow_ne.0" depart="0.00" departLane="n_t_2" departPos="5.10" departSpeed="14.03" departDelay="0.00" arrival="132.00" arrivalLane="t_e_2" arrivalPos="186.40" arrivalSpeed="13.76" duration="132.00" routeLength="392.21" waitingTime="97.00" waitingCount="1" stopTime="0.00" timeLoss="103.60" rerouteNo="0" devices="tripinfo_flow_ne.0 fcd_flow_ne.0" vType="DEFAULT_VEHTYPE" speedFactor="1.01" vaporized=""/>
    <tripinfo id="flow_se.4" depart="103.00" departLane="s_t_0" departPos="5.10" departSpeed="15.22" departDelay="0.14" arrival="132.00" arrivalLane="t_e_0" arrivalPos="186.40" arrivalSpeed="14.80" duration="29.00" routeLength="376.73" waitingTime="0.00" waitingCount="0" stopTime="0.00" timeLoss="3.07" rerouteNo="0" devices="tripinfo_flow_se.4 fcd_flow_se.4" vType="DEFAULT_VEHTYPE" speedFactor="1.10" vaporized=""/>
    <tripinfo id="flow_en.4" depart="103.00" departLane="e_t_0" departPos="5.10" departSpeed="13.93" departDelay="0.14" arrival="134.00" arrivalLane="t_n_0" arrivalPos="186.40" arrivalSpeed="12.96" duration="31.00" routeLength="376.73" waitingTime="0.00" waitingCount="0" stopTime="0.00" timeLoss="3.31" rerouteNo="0" devices="tripinfo_flow_en.4 fcd_flow_en.4" vType="DEFAULT_VEHTYPE" speedFactor="1.00" vaporized=""/>
    <tripinfo id="flow_ne.1" depart="26.00" departLane="n_t_2" departPos="5.10" departSpeed="13.77" departDelay="0.29" arrival="135.00" arrivalLane="t_e_2" arrivalPos="186.40" arrivalSpeed="13.25" duration="109.00" routeLength="392.21" waitingTime="72.00" waitingCount="1" stopTime="0.00" timeLoss="79.72" rerouteNo="0" devices="tripinfo_flow_ne.1 fcd_flow_ne.1" vType="DEFAULT_VEHTYPE" speedFactor="0.99" vaporized=""/>
    <tripinfo id="flow_sw.1" depart="26.00" departLane="s_t_2" departPos="5.10" departSpeed="12.87" departDelay="0.29" arrival="136.00" arrivalLane="t_w_2" arrivalPos="186.40" arrivalSpeed="11.77" duration="110.00" routeLength="392.21" waitingTime="72.00" waitingCount="1" stopTime="0.00" timeLoss="78.11" rerouteNo="0" devices="tripinfo_flow_sw.1 fcd_flow_sw.1" vType="DEFAULT_VEHTYPE" speedFactor="0.93" vaporized=""/>
    <tripinfo id="flow_ws.4" depart="103.00" departLane="w_t_0" departPos="5.10" departSpeed="13.47" departDelay="0.14" arrival="136.00" arrivalLane="t_s_0" arrivalPos="186.40" arrivalSpeed="12.46" duration="33.00" routeLength="376.73" waitingTime="0.00" waitingCount="0" stopTime="0.00" timeLoss="3.27" rerouteNo="0" devices="tripinfo_flow_ws.4 fcd_flow_ws.4" vType="DEFAULT_VEHTYPE" speedFactor="0.97" vaporized=""/>
    <tripinfo id="flow_ne.2" depart="52.00" departLane="n_t_2" departPos="5.10" departSpeed="12.74" departDelay="0.57" arrival="138.00" arrivalLane="t_e_2" arrivalPos="186.40" arrivalSpeed="12.19" duration="86.00" routeLength="392.21" waitingTime="46.00" waitingCount="1" stopTime="0.00" timeLoss="54.49" rerouteNo="0" devices="tripinfo_flow_ne.2 fcd_flow_ne.2" vType="DEFAULT_VEHTYPE" speedFactor="0.92" vaporized=""/>
    <tripinfo id="flow_sw.2" depart="52.00" departLane="s_t_2" departPos="5.10" departSpeed="13.18" departDelay="0.57" arrival="138.00" arrivalLane="t_w_2" arrivalPos="186.40" arrivalSpeed="12.50" duration="86.00" routeLength="392.21" waitingTime="48.00" waitingCount="1" stopTime="0.00" timeLoss="54.89" rerouteNo="0" devices="tripinfo_flow_sw.2 fcd_flow_sw.2" vType="DEFAULT_VEHTYPE" speedFactor="0.95" vaporized=""/>
    <tripinfo id="flow_ne.3" depart="78.00" departLane="n_t_2" departPos="5.10" departSpeed="15.31" departDelay="0.86" arrival="140.00" arrivalLane="t_e_2" arrivalPos="186.40" arrivalSpeed="14.41" duration="62.00" routeLength="392.21" waitingTime="26.00" waitingCount="1" stopTime="0.00" timeLoss="35.52" rerouteNo="0" devices="tripinfo_flow_ne.3 fcd_flow_ne.3" vType="DEFAULT_VEHTYPE" speedFactor="1.10" vaporized=""/>
    <tripinfo id="flow_nw.4" depart="103.00" departLane="n_t_0" departPos="5.10" departSpeed="11.81" departDelay="0.14" arrival="140.00" arrivalLane="t_w_0" arrivalPos="186.40" arrivalSpeed="11.47" duration="37.00" routeLength="376.73" waitingTime="0.00" waitingCount="0" stopTime="0.00" timeLoss="3.20" rerouteNo="0" devices="tripinfo_flow_nw.4 fcd_flow_nw.4" vType="DEFAULT_VEHTYPE" speedFactor="0.85" vaporized=""/>
    <tripinfo id="flow_sw.3" depart="78.00" departLane="s_t_2" departPos="5.10" departSpeed="12.51" departDelay="0.86" arrival="141.00" arrivalLane="t_w_2" arrivalPos="186.40" arrivalSpeed="12.03" duration="63.00" routeLength="392.21" waitingTime="22.00" waitingCount="1" stopTime="0.00" timeLoss="30.35" rerouteNo="0" devices="tripinfo_flow_sw.3 fcd_flow_sw.3" vType="DEFAULT_VEHTYPE" speedFactor="0.90" vaporized=""/>
    <tripinfo id="flow_sw.4" depart="103.00" departLane="s_t_2" departPos="5.10" departSpeed="16.24" departDelay="0.14" arrival="143.00" arrivalLane="t_w_2" arrivalPos="186.40" arrivalSpeed="15.47" duration="40.00" routeLength="392.21" waitingTime="3.00" waitingCount="1" stopTime="0.00" timeLoss="14.37" rerouteNo="0" devices="tripinfo_flow_sw.4 fcd_flow_sw.4" vType="DEFAULT_VEHTYPE" speedFactor="1.17" vaporized=""/>
    <tripinfo id="flow_ne.4" depart="103.00" departLane="n_t_2" departPos="5.10" departSpeed="11.87" departDelay="0.14" arrival="145.00" arrivalLane="t_e_2" arrivalPos="186.40" arrivalSpeed="11.65" duration="42.00" routeLength="392.21" waitingTime="0.00" waitingCount="0" stopTime="0.00" timeLoss="7.48" rerouteNo="0" devices="tripinfo_flow_ne.4 fcd_flow_ne.4" vType="DEFAULT_VEHTYPE" speedFactor="0.85" vaporized=""/>
    <tripinfo id="flow_nw.5" depart="129.00" departLane="n_t_0" departPos="5.10" departSpeed="15.55" departDelay="0.43" arrival="158.00" arrivalLane="t_w_0" arrivalPos="186.40" arrivalSpeed="14.37" duration="29.00" routeLength="376.73" waitingTime="0.00" waitingCount="0" stopTime="0.00" timeLoss="3.77" rerouteNo="0" devices="tripinfo_flow_nw.5 fcd_flow_nw.5" vType="DEFAULT_VEHTYPE" speedFactor="1.12" vaporized=""/>
    <tripinfo id="flow_ne.5" depart="129.00" departLane="n_t_2" departPos="5.10" departSpeed="14.11" departDelay="0.43" arrival="160.00" arrivalLane="t_e_2" arrivalPos="186.40" arrivalSpeed="13.21" duration="31.00" routeLength="392.21" waitingTime="0.00" waitingCount="0" stopTime="0.00" timeLoss="2.73" rerouteNo="0" devices="tripinfo_flow_ne.5 fcd_flow_ne.5" vType="DEFAULT_VEHTYPE" speedFactor="1.02" vaporized=""/>
    <tripinfo id="flow_sw.5" depart="129.00" departLane="s_t_2" departPos="5.10" departSpeed="13.71" departDelay="0.43" arrival="161.00" arrivalLane="t_w_2" arrivalPos="186.40" arrivalSpeed="13.26" duration="32.00" routeLength="392.21" waitingTime="0.00" waitingCount="0" stopTime="0.00" timeLoss="2.27" rerouteNo="0" devices="tripinfo_flow_sw.5 fcd_flow_sw.5" vType="DEFAULT_VEHTYPE" speedFactor="0.99" vaporized=""/>
    <tripinfo id="flow_ws.5" depart="129.00" departLane="w_t_0" departPos="5.10" departSpeed="13.51" departDelay="0.43" arrival="161.00" arrivalLane="t_s_0" arrivalPos="186.40" arrivalSpeed="12.92" duration="32.00" routeLength="376.73" waitingTime="0.00" waitingCount="0" stopTime="0.00" timeLoss="2.73" rerouteNo="0" devices="tripinfo_flow_ws.5 fcd_flow_ws.5" vType="DEFAULT_VEHTYPE" speedFactor="0.97" vaporized=""/>
    <tripinfo id="flow_en.5" depart="129.00" departLane="e_t_0" departPos="5.10" departSpeed="12.60" departDelay="0.43" arrival="163.00" arrivalLane="t_n_0" arrivalPos="186.40" arrivalSpeed="11.74" duration="34.00" routeLength="376.73" waitingTime="0.00" waitingCount="0" stopTime="0.00" timeLoss="2.79" rerouteNo="0" devices="tripinfo_flow_en.5 fcd_flow_en.5" vType="DEFAULT_VEHTYPE" speedFactor="0.91" vaporized=""/>
    <tripinfo id="flow_se.5" depart="129.00" departLane="s_t_0" departPos="5.10" departSpeed="12.26" departDelay="0.43" arrival="165.00" arrivalLane="t_e_0" arrivalPos="186.40" arrivalSpeed="11.04" duration="36.00" routeLength="376.73" waitingTime="0.00" waitingCount="0" stopTime="0.00" timeLoss="4.22" rerouteNo="0" devices="tripinfo_flow_se.5 fcd_flow_se.5" vType="DEFAULT_VEHTYPE" speedFactor="0.88" vaporized=""/>
    <tripinfo id="flow_ew.1" depart="26.00" departLane="e_t_1" departPos="5.10" departSpeed="16.09" departDelay="0.29" arrival="169.00" arrivalLane="t_w_1" arrivalPos="186.40" arrivalSpeed="14.79" duration="143.00" routeLength="394.90" waitingTime="111.00" waitingCount="1" stopTime="0.00" timeLoss="118.23" rerouteNo="0" devices="tripinfo_flow_ew.1 fcd_flow_ew.1" vType="DEFAULT_VEHTYPE" speedFactor="1.16" vaporized=""/>
    <tripinfo id="flow_we.1" depart="26.00" departLane="w_t_1" departPos="5.10" departSpeed="13.54" departDelay="0.29" arrival="171.00" arrivalLane="t_e_1" arrivalPos="186.40" arrivalSpeed="13.32" duration="145.00" routeLength="394.90" waitingTime="108.00" waitingCount="1" stopTime="0.00" timeLoss="115.68" rerouteNo="0" devices="tripinfo_flow_we.1 fcd_flow_we.1" vType="DEFAULT_VEHTYPE" speedFactor="0.97" vaporized=""/>
    <tripinfo id="flow_ew.2" depart="52.00" departLane="e_t_1" departPos="5.10" departSpeed="16.03" departDelay="0.57" arrival="171.00" arrivalLane="t_w_1" arrivalPos="186.40" arrivalSpeed="15.68" duration="119.00" routeLength="394.90" waitingTime="84.00" waitingCount="1" stopTime="0.00" timeLoss="94.34" rerouteNo="0" devices="tripinfo_flow_ew.2 fcd_flow_ew.2" vType="DEFAULT_VEHTYPE" speedFactor="1.15" vaporized=""/>
    <tripinfo id="flow_we.2" depart="52.00" departLane="w_t_1" departPos="5.10" departSpeed="13.82" departDelay="0.57" arrival="173.00" arrivalLane="t_e_1" arrivalPos="186.40" arrivalSpeed="13.72" duration="121.00" routeLength="394.90" waitingTime="84.00" waitingCount="1" stopTime="0.00" timeLoss="92.01" rerouteNo="0" devices="tripinfo_flow_we.2 fcd_flow_we.2" vType="DEFAULT_VEHTYPE" speedFactor="0.99" vaporized=""/>
    <tripinfo id="flow_ew.3" depart="78.00" departLane="e_t_1" departPos="5.10" departSpeed="14.42" departDelay="0.86" arrival="175.00" arrivalLane="t_w_1" arrivalPos="186.40" arrivalSpeed="14.02" duration="97.00" routeLength="394.90" waitingTime="59.00" waitingCount="1" stopTime="0.00" timeLoss="68.86" rerouteNo="0" devices="tripinfo_flow_ew.3 fcd_flow_ew.3" vType="DEFAULT_VEHTYPE" speedFactor="1.04" vaporized=""/>
    <tripinfo id="flow_we.3" depart="78.00" departLane="w_t_1" departPos="5.10" departSpeed="13.85" departDelay="0.86" arrival="175.00" arrivalLane="t_e_1" arrivalPos="186.40" arrivalSpeed="13.04" duration="97.00" routeLength="394.90" waitingTime="60.00" waitingCount="1" stopTime="0.00" timeLoss="67.85" rerouteNo="0" devices="tripinfo_flow_we.3 fcd_flow_we.3" vType="DEFAULT_VEHTYPE" speedFactor="1.00" vaporized=""/>
    <tripinfo id="flow_we.4" depart="103.00" departLane="w_t_1" departPos="5.10" departSpeed="14.22" departDelay="0.14" arrival="176.00" arrivalLane="t_e_1" arrivalPos="186.40" arrivalSpeed="13.84" duration="73.00" routeLength="394.90" waitingTime="36.00" waitingCount="1" stopTime="0.00" timeLoss="45.17" rerouteNo="0" devices="tripinfo_flow_we.4 fcd_flow_we.4" vType="DEFAULT_VEHTYPE" speedFactor="1.02" vaporized=""/>
    <tripinfo id="flow_ew.4" depart="103.00" departLane="e_t_1" departPos="5.10" departSpeed="13.83" departDelay="0.14" arrival="177.00" arrivalLane="t_w_1" arrivalPos="186.40" arrivalSpeed="13.31" duration="74.00" routeLength="394.90" waitingTime="37.00" waitingCount="1" stopTime="0.00" timeLoss="45.10" rerouteNo="0" devices="tripinfo_flow_ew.4 fcd_flow_ew.4" vType="DEFAULT_VEHTYPE" speedFactor="1.00" vaporized=""/>
    <tripinfo id="flow_we.5" depart="129.00" departLane="w_t_1" departPos="5.10" departSpeed="14.21" departDelay="0.43" arrival="178.00" arrivalLane="t_e_1" arrivalPos="186.40" arrivalSpeed="13.56" duration="49.00" routeLength="394.90" waitingTime="12.00" waitingCount="1" stopTime="0.00" timeLoss="21.16" rerouteNo="0" devices="tripinfo_flow_we.5 fcd_flow_we.5" vType="DEFAULT_VEHTYPE" speedFactor="1.02" vaporized=""/>
    <tripinfo id="flow_ew.5" depart="129.00" departLane="e_t_1" departPos="5.10" departSpeed="12.70" departDelay="0.43" arrival="180.00" arrivalLane="t_w_1" arrivalPos="186.40" arrivalSpeed="12.13" duration="51.00" routeLength="394.90" waitingTime="12.00" waitingCount="1" stopTime="0.00" timeLoss="19.86" rerouteNo="0" devices="tripinfo_flow_ew.5 fcd_flow_ew.5" vType="DEFAULT_VEHTYPE" speedFactor="0.91" vaporized=""/>
    <tripinfo id="flow_ew.6" depart="155.00" departLane="e_t_1" departPos="5.10" departSpeed="15.10" departDelay="0.72" arrival="183.00" arrivalLane="t_w_1" arrivalPos="186.40" arrivalSpeed="14.53" duration="28.00" routeLength="394.90" waitingTime="0.00" waitingCount="0" stopTime="0.00" timeLoss="1.26" rerouteNo="0" devices="tripinfo_flow_ew.6 fcd_flow_ew.6" vType="DEFAULT_VEHTYPE" speedFactor="1.09" vaporized=""/>
    <tripinfo id="flow_nw.6" depart="155.00" departLane="n_t_0" departPos="5.10" departSpeed="14.66" departDelay="0.72" arrival="185.00" arrivalLane="t_w_0" arrivalPos="186.40" arrivalSpeed="13.60" duration="30.00" routeLength="376.73" waitingTime="0.00" waitingCount="0" stopTime="0.00" timeLoss="3.17" rerouteNo="0" devices="tripinfo_flow_nw.6 fcd_flow_nw.6" vType="DEFAULT_VEHTYPE" speedFactor="1.06" vaporized=""/>
    <tripinfo id="flow_we.6" depart="155.00" departLane="w_t_1" departPos="5.10" departSpeed="14.12" departDelay="0.72" arrival="185.00" arrivalLane="t_e_1" arrivalPos="186.40" arrivalSpeed="13.82" duration="30.00" routeLength="394.90" waitingTime="0.00" waitingCount="0" stopTime="0.00" timeLoss="1.42" rerouteNo="0" devices="tripinfo_flow_we.6 fcd_flow_we.6" vType="DEFAULT_VEHTYPE" speedFactor="1.02" vaporized=""/>
    <tripinfo id="flow_en.6" depart="155.00" departLane="e_t_0" departPos="5.10" departSpeed="13.99" departDelay="0.72" arrival="186.00" arrivalLane="t_n_0" arrivalPos="186.40" arrivalSpeed="13.12" duration="31.00" routeLength="376.73" waitingTime="0.00" waitingCount="0" stopTime="0.00" timeLoss="3.47" rerouteNo="0" devices="tripinfo_flow_en.6 fcd_flow_en.6" vType="DEFAULT_VEHTYPE" speedFactor="1.01" vaporized=""/>
    <tripinfo id="flow_se.6" depart="155.00" departLane="s_t_0" departPos="5.10" departSpeed="13.64" departDelay="0.72" arrival="187.00" arrivalLane="t_e_0" arrivalPos="186.40" arrivalSpeed="13.04" duration="32.00" routeLength="376.73" waitingTime="0.00" waitingCount="0" stopTime="0.00" timeLoss="3.34" rerouteNo="0" devices="tripinfo_flow_se.6 fcd_flow_se.6" vType="DEFAULT_VEHTYPE" speedFactor="0.98" vaporized=""/>
    <tripinfo id="flow_ws.6" depart="155.00" departLane="w_t_0" departPos="5.10" departSpeed="13.43" departDelay="0.72" arrival="187.00" arrivalLane="t_s_0" arrivalPos="186.40" arrivalSpeed="13.14" duration="32.00" routeLength="376.73" waitingTime="0.00" waitingCount="0" stopTime="0.00" timeLoss="2.89" rerouteNo="0" devices="tripinfo_flow_ws.6 fcd_flow_ws.6" vType="DEFAULT_VEHTYPE" speedFactor="0.97" vaporized=""/>
    <tripinfo id="flow_wn.3" depart="78.00" departLane="w_t_2" departPos="5.10" departSpeed="15.11" departDelay="0.86" arrival="207.00" arrivalLane="t_n_2" arrivalPos="186.40" arrivalSpeed="14.26" duration="129.00" routeLength="392.21" waitingTime="96.00" waitingCount="1" stopTime="0.00" timeLoss="102.14" rerouteNo="0" devices="tripinfo_flow_wn.3 fcd_flow_wn.3" vType="DEFAULT_VEHTYPE" speedFactor="1.09" vaporized=""/>