<?xml version="1.0" encoding="UTF-8"?>

<!-- generated on 2025-05-22 14:45:06 by Eclipse SUMO GUI Version 1.16.0
<configuration xmlns:xsi="http://www.w3.org/2001/XMLSchema-instance" xsi:noNamespaceSchemaLocation="http://sumo.dlr.de/xsd/sumoConfiguration.xsd">

    <input>
        <net-file value="E:\txw\sumo-rl\nets\syc\1x1\Equal_entries_140-passenger\syc_4phases.net.xml"/>
        <route-files value="E:\txw\sumo-rl\nets\syc\1x1\Equal_entries_140-passenger\equal_entries_140.rou.xml"/>
        <additional-files value="E:\txw\sumo-rl\nets\syc\1x1\Equal_entries_140-passenger\1x1_outputs.add.xml"/>
    </input>

    <output>
        <fcd-output value="E:\txw\sumo-rl\nets\syc\1x1\Equal_entries_140-passenger\output/fcd_output.xml"/>
        <tripinfo-output value="E:\txw\sumo-rl\nets\syc\1x1\Equal_entries_140-passenger\output/tripinfo.out.xml"/>
    </output>

    <time>
        <begin value="0"/>
        <end value="1000"/>
    </time>

</configuration>
-->

<tripinfos xmlns:xsi="http://www.w3.org/2001/XMLSchema-instance" xsi:noNamespaceSchemaLocation="http://sumo.dlr.de/xsd/tripinfo_file.xsd">
    <tripinfo id="veh2" depart="10.00" departLane="n_t_0" departPos="12.10" departSpeed="0.00" departDelay="0.00" arrival="49.00" arrivalLane="t_w_0" arrivalPos="186.40" arrivalSpeed="13.87" duration="39.00" routeLength="369.73" waitingTime="0.00" waitingCount="0" stopTime="0.00" timeLoss="11.79" rerouteNo="0" devices="tripinfo_veh2 fcd_veh2" vType="bus" speedFactor="1.00" vaporized=""/>
    <tripinfo id="veh1" depart="0.00" departLane="n_t_0" departPos="5.10" departSpeed="0.00" departDelay="0.00" arrival="94.00" arrivalLane="t_s_1" arrivalPos="186.40" arrivalSpeed="14.44" duration="94.00" routeLength="394.90" waitingTime="55.00" waitingCount="1" stopTime="0.00" timeLoss="66.23" rerouteNo="0" devices="tripinfo_veh1 fcd_veh1" vType="family_car" speedFactor="1.06" vaporized=""/>
    <tripinfo id="veh3" depart="20.00" departLane="n_t_0" departPos="5.10" departSpeed="0.00" departDelay="0.00" arrival="134.00" arrivalLane="t_e_2" arrivalPos="186.40" arrivalSpeed="12.17" duration="114.00" routeLength="392.21" waitingTime="74.00" waitingCount="1" stopTime="0.00" timeLoss="82.60" rerouteNo="0" devices="tripinfo_veh3 fcd_veh3" vType="family_car" speedFactor="0.94" vaporized=""/>
</tripinfos>
